<?xml version="1.0" encoding="UTF-8"?>
<VTKFile type="UnstructuredGrid" version="0.1" byte_order="LittleEndian">
<UnstructuredGrid>
<Piece NumberOfPoints="504" NumberOfCells="911">
<PointData>
<DataArray type="Float64" Name="Temperature_@_t=8.58" Format="ascii">
1.501679319220825164e+02
1.213521954504469988e+02
1.501679319220817206e+02
1.501679319220818911e+02
1.323433653993571397e+02
1.501679319220818343e+02
1.019659165490366632e+02
8.509516142251285942e+01
1.413640878168756956e+02
1.501679319220818343e+02
1.501679319220818343e+02
1.331236828858587273e+02
1.501679319220818343e+02
1.432287356778089702e+02
1.501679319220818343e+02
1.459189711599272243e+02
2.002239092294418299e+01
1.501679319220818343e+02
1.482483049018697443e+02
1.501679319220818343e+02
1.508778485114634407e+02
5.394546196070631083e+01
2.002239092294418299e+01
1.501679319220818343e+02
1.536910397888273963e+02
1.501679319220818343e+02
1.601964165770023669e+02
5.382489750352257829e+01
2.002239092294418299e+01
1.501679319220818343e+02
1.670438471710443480e+02
1.751959205757617042e+02
4.905488378035933295e+01
2.002239092294418299e+01
2.002239092294424836e+02
4.819655910222572714e+01
2.002239092294418299e+01
1.731926508043426907e+02
2.002239092294424836e+02
4.460377190830540428e+01
2.002239092294418299e+01
1.719733776795093263e+02
2.002239092294441889e+02
4.537589084266630124e+01
2.002239092294418299e+01
2.002239092294424836e+02
1.641314280275873045e+02
4.519588897001379024e+01
2.002239092294418299e+01
1.588274677084382631e+02
1.101231500761932693e+02
4.694081337961224420e+01
2.002239092294418299e+01
2.002239092294418299e+01
8.089723359201200026e+01
2.002239092294418299e+01
5.599257637762872974e+01
2.002239092294418299e+01
5.612656153812839932e+01
2.002239092294418299e+01
2.002239092294418299e+01
5.117446003473395422e+01
6.242264806852040238e+01
4.703513244465523258e+01
2.002239092294418299e+01
2.002239092294418299e+01
6.383466365408888521e+01
5.798012820552697377e+01
2.002239092294418299e+01
5.495991227660139344e+01
2.002239092294418299e+01
6.010930699348319450e+01
8.198309080859414166e+01
1.007266167982300971e+02
2.002239092294418299e+01
2.035303148085597513e+01
2.002239092294418299e+01
2.002239092294418299e+01
2.105098042936271696e+01
2.002239092294418299e+01
2.002239092294418299e+01
4.874432980528405324e+01
2.002239092294418299e+01
1.338723342510172074e+02
1.178904212955046091e+02
2.002239092294418299e+01
4.773966882338667972e+01
2.222696487146655286e+01
2.002239092294418299e+01
2.552861925668687348e+01
2.002239092294418299e+01
1.600618277031288130e+02
1.491003644698932078e+02
4.487038157561296714e+01
2.002239092294418299e+01
3.752969723133913504e+01
2.002239092294418299e+01
2.002239092294418299e+01
2.421952429324921496e+01
3.667900702557542303e+01
2.278699188334690007e+01
2.002239092294418299e+01
1.695702955413797213e+02
1.766542044398145777e+02
2.002239092294418299e+01
2.418367150715334546e+01
1.822066698310539152e+02
1.801110404683136039e+02
2.002239092294418299e+01
2.494840220988856672e+01
1.763345803579857431e+02
1.800863810997279870e+02
2.536001091640857297e+01
2.002239092294418299e+01
2.002239092294418299e+01
2.002239092294418299e+01
3.273102991463714773e+01
2.002239092294418299e+01
6.211027528231100803e+01
1.595036804783797777e+02
1.671142615634141748e+02
2.002239092294418299e+01
2.814377750369056486e+01
2.002239092294418299e+01
3.162564076412614966e+01
2.922339030508846491e+01
2.002239092294430023e+01
7.449374409674443598e+01
1.001379378323841820e+02
1.332177783038888492e+02
1.422254675917929490e+02
2.563704457288027427e+01
2.002239092294418299e+01
2.002239092294418299e+01
3.231122808245291367e+01
1.155003552410984184e+02
2.701053895726053611e+01
2.002239092294418299e+01
2.002239092294418299e+01
3.397255630522479208e+01
3.080509211630067767e+01
2.002239092294418299e+01
2.002239092294418299e+01
2.755164725651690816e+01
2.002239092294418299e+01
3.151152237210348517e+01
2.002239092294418299e+01
2.861351838315757234e+01
2.002239092294418299e+01
3.334798510314241327e+01
2.847033659663159355e+01
2.002239092294418299e+01
2.002239092294418299e+01
3.413144851218931564e+01
2.868165478065151319e+01
2.002239092294418299e+01
2.992973404397870496e+01
2.002239092294418299e+01
2.002239092294418299e+01
2.934411920312813749e+01
2.002239092294418299e+01
3.280728114226725722e+01
2.002239092294418299e+01
2.990488150657031596e+01
2.882566539155387986e+01
2.002239092294418299e+01
2.969234851850141510e+01
2.002239092294430023e+01
2.002239092294430023e+01
3.269113462260630598e+01
3.007492394400421887e+01
2.002239092294418299e+01
2.928345133804593559e+01
2.002239092294418299e+01
3.025450899249230474e+01
2.002239092294418299e+01
2.002239092294418299e+01
3.252186088450647361e+01
2.002239092294418299e+01
3.113029285515745670e+01
2.776347924955788216e+01
7.846617531382612754e+01
1.108407770124382665e+02
8.726066406742251047e+01
1.330489281776538064e+02
1.151787989285691367e+02
1.389494997382696795e+02
1.446308097106295349e+02
6.592910483717042780e+01
9.875635299774945963e+01
1.248415726830697139e+02
1.408712621676879451e+02
1.487090489199889021e+02
1.543148562962234109e+02
8.489029248972765629e+01
1.110818673317433678e+02
1.339268324598608899e+02
1.520883908214730980e+02
1.626433881882985872e+02
1.769885739726131817e+02
7.554098906901224098e+01
1.017059300378608242e+02
1.264150896272699498e+02
1.502026478392256763e+02
6.958419326857845988e+01
9.432911166472116804e+01
1.205787635915417724e+02
1.449938330817417409e+02
6.681931377530212046e+01
8.819169741072332158e+01
1.125391149496249881e+02
1.353458155142954809e+02
6.576657529491413356e+01
8.345956685824671695e+01
1.047948374178562005e+02
1.310663027636563243e+02
6.636180411673716151e+01
8.121835212710608687e+01
9.932500911814932465e+01
1.132250518270071638e+02
1.170634638752037375e+02
6.779299246318402083e+01
8.449975848626247910e+01
9.961366830124873673e+01
1.099432989765633977e+02
1.086914075046429957e+02
7.033603625744159160e+01
8.818530683937424897e+01
1.043206816598313509e+02
1.149379353384389617e+02
1.167949266881947494e+02
1.079445506801404377e+02
9.262104274063364073e+01
8.354938788597654309e+01
9.165244937627673494e+01
7.134247681359181570e+01
9.101708124747463557e+01
1.089580753612293336e+02
1.218279331768067379e+02
1.276054420744108882e+02
1.253423955584840854e+02
1.152421601716437749e+02
9.426657205384049121e+01
8.535911254343302801e+01
8.368004392981150374e+01
9.541145873670912181e+01
1.104496500478833667e+02
1.248503102044172977e+02
2.444631375484166469e+01
7.119909290469720986e+01
9.265216479323130727e+01
1.118829753985492630e+02
1.273542969476829114e+02
1.368084449641117146e+02
1.392195315622455212e+02
1.348826901841540291e+02
1.245249999605682945e+02
1.127688726624850801e+02
1.095562918259699359e+02
1.246893284256411931e+02
1.386482983500121975e+02
1.533483119987138537e+02
7.001081366335799316e+01
2.671650050122901376e+01
3.030955236755350413e+01
3.284617449838453496e+01
9.111552813749206337e+01
1.119848796740665762e+02
1.303110471674765733e+02
1.427542202106773459e+02
1.492054898670933198e+02
1.498482456894762720e+02
1.289110473895638336e+02
1.452147183489106794e+02
1.366947139441153638e+02
1.384900508626563749e+02
1.503550097191039185e+02
1.610498317956313485e+02
1.713685467138072056e+02
1.694742178535732364e+02
1.782351116369648025e+02
5.315076845887316637e+01
6.830357344518220941e+01
8.864542808708878852e+01
4.997368618633715442e+01
4.850954695261292215e+01
3.077150174594687826e+01
2.849359467945112456e+01
4.255254464874265352e+01
3.700029579974915350e+01
1.090257548841163668e+02
1.300462656200358253e+02
1.447823985823384305e+02
1.545045035943275593e+02
1.591695696085097893e+02
1.593546075677949716e+02
1.487742560885656076e+02
1.559059096891744218e+02
1.597312440951608039e+02
1.682976823868409326e+02
1.748571386417149824e+02
1.796623604631845410e+02
1.818006529697270821e+02
6.581490005446192981e+01
8.373110389330184944e+01
1.025640573671928166e+02
5.943904783196936847e+01
5.244232702420761427e+01
3.098262290254424656e+01
3.094858868843594024e+01
3.727595416225398850e+01
4.561077736640164915e+01
1.200398911101054580e+02
1.334606750618594333e+02
1.436687723460715631e+02
1.549283837916534026e+02
1.628024311310371388e+02
1.669143793420059865e+02
1.677107330209229588e+02
1.656262353563872125e+02
1.730346710192131070e+02
1.778244406963764845e+02
1.805314317338332160e+02
1.810850912425156878e+02
1.794301907305223835e+02
7.585296550697884754e+01
9.411256167819701091e+01
1.110866897545904237e+02
6.409699568440680650e+01
5.573322734674008672e+01
3.229960610209604255e+01
3.809758087845962393e+01
4.729746623155561736e+01
1.262557922366331695e+02
1.392056184469794573e+02
1.509109124422151922e+02
1.609453534849596394e+02
1.682963358982094917e+02
1.726082586104556924e+02
1.744794126967148316e+02
1.781975069428086726e+02
1.795505183182014832e+02
1.787495873706316161e+02
1.759254554993071054e+02
1.720194587855113753e+02
7.440626349249211557e+01
8.574528033295470664e+01
1.012220613307023456e+02
1.162509834385921152e+02
6.617974293963209220e+01
5.707742679248455886e+01
3.807692776742243268e+01
4.748789962223504801e+01
3.532793913033624733e+01
1.302918649747159066e+02
1.431715168242363347e+02
1.714105716963601651e+02
1.544364335487349251e+02
1.640081788787828998e+02
1.753680834346679660e+02
5.238493595089086341e+01
1.761429177447931806e+02
1.742365028148566353e+02
1.562161832089747122e+02
1.701978004979485206e+02
1.643852828902805356e+02
7.833598488830223516e+01
9.112494506612205214e+01
1.049968609153314816e+02
1.189582998534510949e+02
6.789267991042535755e+01
5.718820819348740514e+01
4.636273834420662610e+01
4.439997033758903200e+01
3.476405166497995225e+01
1.324975480079289127e+02
1.446294058461462271e+02
1.695619812706566165e+02
1.636972286476722900e+02
1.551673736000741428e+02
1.700003159153120862e+02
4.479786625750519846e+01
6.625373238400658238e+01
9.094875033299388178e+01
1.185810531388328712e+02
1.677725179280977272e+02
1.628326756129041257e+02
1.347059643968788123e+02
1.469118074805617766e+02
1.557559387416374932e+02
7.996146477895626958e+01
9.263675305664598625e+01
1.057104414891675788e+02
1.184063133898040832e+02
6.790927055843125970e+01
5.589941812329780646e+01
5.209946889053362895e+01
3.903501161691961130e+01
1.297418471402514513e+02
1.433050180708603420e+02
1.623030641810941290e+02
1.535691555198761478e+02
1.595623508633884740e+02
5.466940170347998418e+01
7.881271558466916360e+01
9.955917130626318112e+01
1.126177104729842711e+02
1.538034565371951317e+02
1.459205289856714671e+02
1.256945753413222064e+02
1.367165142538746352e+02
7.960540237491954940e+01
9.171191935577898846e+01
1.033009351758723540e+02
1.132748824155048055e+02
1.192021092991503366e+02
6.534677658674060297e+01
5.660220567410185311e+01
4.660550071350183998e+01
3.703726076059979988e+01
1.294845553646559893e+02
1.401850030721827807e+02
1.502611021575393693e+02
1.445386552984321895e+02
4.709962090372526688e+01
6.900587256732735852e+01
9.083865590957026370e+01
1.034352528434643403e+02
1.342857695446607806e+02
1.256448701165137010e+02
1.149538417301978086e+02
7.794745564206911581e+01
8.885400470639913806e+01
9.884256716294579803e+01
1.068471635031175850e+02
1.139929841107813644e+02
6.492664424239436016e+01
5.281436049932711541e+01
3.993732177723543941e+01
1.245383456907725446e+02
1.348866778433658169e+02
1.279849477834707017e+02
1.202373510385253326e+02
4.491453653330895435e+01
6.099758597370068713e+01
8.129852006141075549e+01
9.331879437623240392e+01
1.138612055777563512e+02
1.045704038122676565e+02
1.099246025138334915e+02
7.460909168982669826e+01
8.461913963161434538e+01
9.364924039495242880e+01
1.018217726053140524e+02
6.091667562387952728e+01
4.833552082953622175e+01
3.775685343367935332e+01
1.165344646128930606e+02
1.107023388759282483e+02
1.035403909898324315e+02
5.074461156308365872e+01
7.194880600945160154e+01
8.364325438313450434e+01
9.438718191657117984e+01
4.341578194800888468e+01
1.047124176637205295e+02
9.677269754305514482e+01
7.021900799046169084e+01
7.964650978153729000e+01
8.822562256972152284e+01
5.596264857726909980e+01
4.195633858293250285e+01
1.011879910271031946e+02
9.340703632064698070e+01
8.536302702844037071e+01
6.240983099486200558e+01
7.632417423394262812e+01
4.791315531709295783e+01
9.197086866936173521e+01
8.253407563987460094e+01
6.472517942250912881e+01
7.373276217029473401e+01
5.027982290467308246e+01
3.856665864991158088e+01
8.475180417019812751e+01
7.648796550982052622e+01
6.790472698876349966e+01
5.892451627123784164e+01
4.200830618013898743e+01
7.580098245259934231e+01
6.684959795113491055e+01
5.590678260351834439e+01
4.048697891207345378e+01
6.800358067492774694e+01
5.961561800585339199e+01
5.053181683132822144e+01
5.117077787281634471e+01
5.655715633380339114e+01
4.164580569125505605e+01
5.035408028621327503e+01
4.275329103934124930e+01
4.372569394330912473e+01
4.002805739899225301e+01
3.882514684983566156e+01
</DataArray>
</PointData>
<CellData/>
<Points>
<DataArray type="Float64" NumberOfComponents="3" Format="ascii">
17 1.071429 0
16.64207 0.909216 0
17 0.714286 0
17 1.428571 0
16.69122 1.246885 0
17 0.357143 0
16.65814 0.47388600000000003 0
17 0 0
16.70908 1.96957 0
17 1.785714 0
17 2.1428570000000002 0
16.57897 1.611369 0
17 2.5 0
16.67994 2.302713 0
17 2.857143 0
16.6837 2.678571 0
16 0 0
17 3.2142859999999995 0
16.66885 3.035714 0
17 3.571429 0
16.67129 3.392857 0
15.616059999999997 0.523603 0
15 0 0
17 3.9285710000000003 0
16.6907 3.75 0
17 4.2857140000000005 0
16.60368 4.141509 0
14.413010000000002 0.7714090000000001 0
14.000000000000002 0 0
17 4.642857 0
16.65744 4.529237 0
17 5 0
13.50644 0.756928 0
13 0 0
16 5 0
12.50603 0.8042320000000001 0
12 0 0
15.50626 4.194145 0
15 5 0
11.47682 0.742085 0
11 0 0
14.52931 4.195381 0
14.000000000000002 5 0
10.4645 0.779793 0
10 0 0
13 5 0
13.424540000000002 4.154815 0
9.446193999999998 0.765071 0
9 0 0
12.48475 4.449781 0
12 5 0
8.471856 0.799822 0
8 0 0
12 6 0
11.16884 5.39143 0
12 11 0
11.15689 10.55875 0
12 10 0
11.15194 11.50526 0
12 12 0
12 13 0
11.26794 12.26794 0
11 13 0
7.509974 0.791651 0
7.000000000000001 0 0
12 7.000000000000001 0
11.13397 6.5 0
11.16543 7.462071000000001 0
12 8 0
11.20006 8.465465 0
12 9 0
11.06491 9.503241 0
10.50744 12.1713 0
10 13 0
0 0.333333 0
0.319634 0.444444 0
0 0.666667 0
0 0 0
0.261505 0.810031 0
0 1 0
1 0 0
6.504196999999999 0.851702 0
6 0 0
9 13 0
9.503017 12.12874 0
5 0 0
5.5 0.8660250000000002 0
0.29253 1.159436 0
0 1.333333 0
1.2863189999999998 0.535738 0
2 0 0
8 13 0
8.45795 12.0966 0
4.522774 0.860695 0
4 0 0
3.549167 0.7203569999999999 0
3 0 0
0 1.666667 0
0.36935 1.556003 0
2.559128 0.886044 0
0.239431 1.8510700000000002 0
0 2 0
7.504975 12.45132 0
7.000000000000001 13 0
0 2.333333 0
0.288675 2.1666669999999995 0
6 13 0
6.606292 12.14554 0
0 2.666667 0
0.296878 2.5021840000000006 0
5 13 0
5.425246 12.09176 0
0.288675 2.833333 0
0 3 0
0 12.666660000000002 0
0 12.33333 0
0.313349 12.542510000000002 0
0 13 0
1 13 0
4 13 0
4.385821 12.18756 0
0 3.333333 0
0.370843 3.2509130000000006 0
0 12 0
0.288675 12.16666 0
0.234889 11.8 0
0 11.66666 0
1.311317 12.47036 0
2 13 0
3 13 0
3.314238 12.11378 0
0.254389 3.5358050000000003 0
0 3.666667 0
0 11.33333 0
0.304894 11.50086 0
2.447044 12.21962 0
0.287866 3.8286830000000003 0
0 4 0
0 11 0
0.343154 11.14822 0
0.271907 10.82789 0
0 10.66666 0
0 4.333333 0
0.288675 4.166667 0
0 10.33333 0
0.288675 10.5 0
0 4.666667 0
0.306356 4.513556 0
0 10 0
0.331674 10.13202 0
0.288675 4.833333 0
0 5 0
0 9.666667 0
0.351113 9.768281000000002 0
0.283168 5.166667 0
0 5.333333 0
0.25579 9.476158 0
0 9.333333 0
0 5.666667 0
0.291036 5.519012 0
0 9 0
0.32375 9.150895 0
0 6 0
0.297174 5.855061 0
0.233153 8.832691 0
0 8.666667 0
0.284129 6.17378 0
0 6.333333 0
0 8.333333 0
0.325592 8.502603 0
0.2875150000000001 6.5 0
0 6.666667000000001 0
0.247943 8.164181 0
0 8 0
0.286387 6.828158000000001 0
0 7.000000000000001 0
0 7.666667 0
0.328275 7.820093999999999 0
0 7.3333330000000005 0
0.302627 7.189198000000001 0
0.21707 7.500484 0
16.14641 0.674433 0
16.29526 1.178897 0
15.78151 1.061764 0
16.36196 2.030563 0
16.05833 1.592074 0
16.31933 2.481841 0
16.39783 2.841499 0
15.15238 0.88182 0
15.44393 1.549891 0
15.80977 2.1942190000000004 0
16.00044 2.82784 0
16.31682 3.1835269999999998 0
16.36844 3.571429 0
14.72143 1.4757090000000002 0
15.03979 2.128311 0
15.382409999999998 2.785215 0
15.81172 3.4161779999999995 0
16.16063 3.929903 0
16.16257 4.435543 0
13.92146 1.416552 0
14.26333 2.101179 0
14.639580000000002 2.764893 0
15.01763 3.4563360000000003 0
13.00467 1.388854 0
13.38744 2.086839 0
13.791590000000001 2.8049610000000005 0
14.124900000000002 3.4633740000000004 0
11.96563 1.418899 0
12.42559 2.085385 0
12.860679999999999 2.810031 0
13.320760000000002 3.384444 0
10.91338 1.449774 0
11.40827 2.080986 0
11.89033 2.861521 0
12.40208 3.689041 0
9.898395 1.471387 0
10.39717 2.051339 0
10.89736 2.874583 0
11.34345 3.6891679999999996 0
11.59715 4.405047 0
8.948006 1.483543 0
9.411905 2.138326 0
9.908236 2.8841 0
10.39691 3.721338 0
10.74796 4.52819 0
7.988728 1.5294000000000003 0
8.470956 2.197251 0
8.95889 2.949848 0
9.43068 3.7355060000000004 0
9.862397000000001 4.528759 0
10.24284 5.29434 0
10.52311 6.025941 0
10.471889999999998 10.20295 0
10.2517 11.1433 0
7.0453920000000005 1.551195 0
7.564458 2.242346 0
8.035021 2.992702 0
8.496539 3.7512050000000006 0
8.949217 4.522327 0
9.356233 5.282281 0
9.760347 6.031979 0
10.30954 6.911954 0
10.4682 7.992774000000001 0
10.48548 8.828998 0
10.15927 9.501392 0
9.726674 10.30808 0
9.28984 11.14863 0
0.695359 0.779606 0
6.075135 1.5887820000000001 0
6.629857 2.303288 0
7.1467 3.032668 0
7.614272 3.785329 0
8.063753 4.53801 0
8.500485 5.280869 0
8.923457 6.026378000000001 0
9.354546 6.7775870000000005 0
9.70665 7.610159999999999 0
9.771093 8.618283 0
9.297994 9.523453 0
8.83457 10.31573 0
8.283969 11.10245 0
5.187292 1.656014 0
0.648485 1.254433 0
1.065927 1.150957 0
1.705057 0.9437419999999999 0
5.714729 2.341497 0
6.258190000000001 3.068293 0
6.746123 3.838229 0
7.224376000000002 4.576157 0
7.655515 5.295729 0
8.078602 6.01704 0
9.169716 8.123852 0
8.494159 6.7500160000000005 0
8.890945 7.463136 0
8.833422 8.750161000000002 0
8.388307 9.513617 0
7.929682000000001 10.261049999999997 0
7.367739000000001 10.90133 0
7.504011000000001 11.69952 0
6.815322999999999 11.40768 0
3.94908 1.2736940000000003 0
4.433292 1.7586609999999998 0
4.931023 2.425005 0
3.185717 1.363666 0
2.619073 1.537779 0
0.81926 1.6261650000000003 0
0.569297 1.9421950000000001 0
2.046677 1.482973 0
1.370818 1.575124 0
5.423857 3.106341 0
5.831419 3.931644 0
6.396377000000002 4.621209 0
6.841737 5.322986 0
7.253026 6.007737 0
7.651617 6.700555 0
8.418204 8.106017 0
8.024371 7.406582 0
7.941318 8.771504 0
7.503463000000001 9.497884 0
7.071546 10.1846 0
6.584238000000001 10.76776 0
6.074711 11.388950000000001 0
3.710471 1.906551 0
4.227452 2.48031 0
4.656798 3.109361 0
2.976717 1.964817 0
2.327123 1.9913969999999999 0
0.626015 2.346437 0
0.564468 2.670789 0
1.073051 2.10683 0
1.7135110000000002 2.045549 0
5.000709 3.749669 0
5.233106 4.319936 0
5.668913 4.711979000000001 0
6.065698 5.346259 0
6.458372 6.006396 0
6.84235 6.680048000000001 0
7.191788000000001 7.365870000000001 0
7.535319 8.085112 0
7.068615 8.770778 0
6.65988 9.489128 0
6.242849 10.11852 0
5.802285 10.736630000000002 0
5.380108 11.33326 0
3.3872180000000003 2.577529 0
3.920763 3.129532 0
4.279084 3.7298829999999996 0
2.645343 2.493777 0
2.049657 2.52182 0
0.584504 2.935084 0
0.9079810000000003 2.7164400000000004 0
1.472078 2.584157 0
4.617866 4.297254 0
4.953424 4.824079 0
5.325578 5.370131000000001 0
5.699051 5.989013 0
6.081611 6.654520999999999 0
6.399789 7.3537930000000005 0
6.675322 8.069439 0
6.239305 8.785397 0
5.845978 9.475488 0
5.446272 10.11673 0
5.046908 10.75436 0
4.702778 11.47333 0
2.856795 2.936513 0
3.2698810000000003 3.2062110000000006 0
3.608778 3.7606580000000003 0
3.9480500000000003 4.303327 0
2.324952 2.98406 0
1.7888210000000002 3.020929 0
0.7905539999999999 3.2039440000000003 0
1.255914 3.094744 0
0.613236 3.599431 0
4.282134 4.846876999999999 0
4.630824 5.3947 0
5.69075 7.313570000000001 0
4.980395 5.966468000000001 0
5.33995 6.594079 0
5.819526 8.016206 0
0.767001 12.29503 0
5.452859 8.792225 0
5.06037 9.463375 0
3.8726620000000005 11.44647 0
4.668353 10.10296 0
4.283958 10.76127 0
2.656583 3.42099 0
2.996922 3.839638 0
3.317531 4.34232 0
3.645115 4.865614 0
2.089347 3.472907 0
1.556749 3.512992000000001 0
1.063915 3.55668 0
0.8959550000000001 3.982555 0
0.545979 4 0
3.9814559999999997 5.412068 0
4.309198 5.96933 0
5.215407 7.610732 0
4.950814 7.105839 0
4.637079 6.53506 0
5.015052 8.176915 0
0.590142 11.7931 0
1.104774 11.9001 0
1.74819 12.04195 0
2.5458300000000005 11.57639 0
4.685909 8.809712 0
4.302499 9.440916 0
3.066071 11.23906 0
3.517642 10.69709 0
3.909655 10.06934 0
2.407665 3.922705 0
2.721095 4.384945 0
3.0367550000000003 4.865567 0
3.347013 5.351331 0
1.8505590000000003 3.963895 0
1.341946 3.98175 0
1.107874 4.359414 0
0.656801 4.336709 0
3.5788389999999994 5.950501 0
3.975283 6.529827000000001 0
4.6282 7.635637000000001 0
4.297976 7.088077000000001 0
4.317083 8.205781 0
0.8239359999999999 11.39937 0
1.427769 11.46503 0
1.990782 11.50623 0
2.37419 11.05254 0
3.935031 8.821212 0
3.546359 9.435319 0
2.786466 10.579549999999998 0
3.1732840000000007 10.024730000000002 0
2.156552 4.414089 0
2.461224 4.866584999999999 0
2.749765 5.298893 0
2.992167 5.704576 0
3.073756 6.163592999999999 0
1.5750919999999997 4.464707000000001 0
1.204109 4.690083 0
0.868113 4.6734 0
0.560037 4.67664 0
3.3600470000000002 6.563334 0
3.658658 7.092319 0
3.9747870000000005 7.640167000000001 0
3.621013 8.215558 0
0.647217 10.79847 0
1.179785 10.91545 0
1.754647 10.9735 0
2.11663 10.48505 0
3.168133 8.791478 0
2.831072 9.423026 0
2.470975 9.97881 0
1.9281100000000002 4.883154000000001 0
2.201323 5.318611 0
2.447157 5.727238 0
2.620922 6.160217 0
2.775164 6.589752 0
1.444089 4.940859 0
1.025375 5.012034 0
0.623373 5.005304 0
3.047691 7.099426 0
3.3339800000000004 7.634162 0
3.008515 8.184702 0
2.717057 8.520606 0
0.598337 10.34674 0
0.984439 10.39017 0
1.504319 10.44632 0
1.8422779999999999 9.942954 0
2.485195 8.946313999999997 0
2.181894 9.41533 0
2.547982 7.072989000000001 0
1.6961190000000002 5.330031 0
1.948447 5.747005 0
2.165358 6.174021 0
2.352227 6.633158 0
1.236629 5.359436 0
0.844829 5.371836 0
0.535033 5.357928000000001 0
2.687571 7.636015 0
2.443194 8.175192 0
2.195208 8.561052 0
0.739681 9.913050000000002 0
1.267116 9.931056000000002 0
1.5889610000000003 9.426369 0
1.905109 8.978156 0
0.56949 9.467931 0
2.330963 7.429819 0
2.132742 7.010704 0
1.474501 5.755582 0
1.7132330000000002 6.156743 0
1.9212800000000003 6.587574 0
1.034109 5.767205 0
0.632759 5.726822 0
2.1833540000000005 7.792823 0
1.919857 8.185287 0
1.668149 8.567147 0
1.033134 9.381892 0
1.405346 8.949812 0
0.680277 9.134871 0
1.943777 7.369421 0
1.7002190000000001 6.971261000000001 0
1.252947 6.172355 0
1.47932 6.568601 0
0.841353 6.113161 0
0.523657 6.040847 0
1.696417 7.776677 0
1.440696 8.166955 0
1.194709 8.550081 0
0.9544059999999999 8.921419 0
0.54258 8.842005 0
1.468737 7.373363000000001 0
1.243955 6.979459 0
0.969033 6.542571 0
0.5628709999999999 6.335410999999999 0
1.228697 7.767787000000001 0
0.991908 8.153853 0
0.7539 8.519202 0
0.81792 6.964422000000001 0
0.941595 7.373645999999999 0
0.580238 6.680345 0
0.7666919999999999 7.797002 0
0.570344 8.159903 0
0.61679 7.194736 0
0.529906 6.955510000000001 0
0.48667900000000003 7.5 0
</DataArray>
</Points>
<Cells>
<DataArray type="Int32" Name="connectivity" Format="ascii">
0 1 2
0 3 4
5 2 6
5 6 7
8 9 10
9 11 3
10 12 13
12 14 15
6 16 7
14 17 18
17 19 20
21 22 16
19 23 24
25 26 23
27 28 22
29 30 25
29 31 30
32 33 28
30 31 34
35 36 33
37 34 38
39 40 36
41 38 42
43 44 40
45 46 42
47 48 44
49 45 50
51 52 48
50 53 54
55 56 57
58 55 59
59 60 61
62 61 60
63 64 52
53 65 66
67 65 68
69 68 70
57 71 70
72 62 73
74 75 76
74 77 75
78 79 76
75 77 80
81 82 64
73 83 84
85 82 86
79 87 88
89 80 90
91 92 83
85 93 94
95 96 94
97 88 98
96 99 90
100 101 97
102 91 103
104 101 105
103 106 107
108 104 109
110 111 106
108 112 113
114 115 116
114 116 117
116 118 117
119 120 110
121 113 122
123 124 115
125 123 126
127 128 118
129 130 119
131 132 121
126 133 134
135 129 128
132 136 137
138 139 133
140 138 141
142 137 143
141 144 145
146 142 147
148 149 144
146 150 151
152 153 148
154 155 151
156 152 157
158 155 159
160 161 157
162 158 163
164 160 165
166 167 162
165 168 169
170 171 167
172 168 173
171 174 175
176 177 173
178 175 179
180 176 178
4 1 0
2 1 6
1 181 6
8 11 9
4 3 11
4 11 182
4 182 1
182 181 1
8 10 13
15 13 12
181 16 6
21 16 181
181 183 21
182 183 181
8 184 11
8 13 184
11 184 185
182 11 185
182 185 183
13 15 186
13 186 184
15 14 18
187 186 15
187 15 18
20 18 17
21 188 22
21 183 188
183 185 189
183 189 188
184 186 190
184 190 185
185 190 189
186 191 190
187 191 186
18 20 192
187 192 191
187 18 192
24 20 19
193 192 20
20 24 193
24 23 26
188 27 22
189 194 188
188 194 27
189 190 195
195 194 189
191 196 190
196 195 190
191 197 196
192 197 191
192 193 197
26 198 24
193 24 198
193 198 197
30 26 25
198 26 199
30 199 26
28 27 32
200 32 27
194 200 27
194 195 201
201 200 194
196 202 195
202 201 195
196 197 203
196 203 202
197 37 203
198 37 197
199 37 198
199 34 37
199 30 34
33 32 35
204 35 32
32 200 204
205 204 200
200 201 205
206 205 201
201 202 206
202 203 207
206 202 207
203 37 41
41 207 203
38 41 37
36 35 39
35 204 208
208 39 35
209 208 204
204 205 209
210 209 205
205 206 210
206 207 211
211 210 206
207 41 46
211 207 46
42 46 41
40 39 43
39 208 212
212 43 39
213 212 208
208 209 213
214 213 209
209 210 214
211 46 215
214 210 215
211 215 210
49 215 46
45 49 46
44 43 47
216 47 43
43 212 216
212 213 217
217 216 212
218 217 213
213 214 218
219 218 214
214 215 219
219 215 220
49 220 215
50 220 49
48 47 51
47 216 221
221 51 47
222 221 216
216 217 222
217 218 223
223 222 217
224 223 218
219 224 218
224 219 225
220 225 219
225 220 54
50 54 220
56 55 58
61 58 59
52 51 63
226 63 51
51 221 226
221 222 227
227 226 221
222 223 228
228 227 222
224 229 223
228 223 229
225 230 224
229 224 230
231 225 54
230 225 231
53 66 54
232 231 54
232 54 66
67 66 65
68 69 67
69 70 71
57 56 71
233 71 56
58 234 56
233 56 234
58 72 234
61 62 72
61 72 58
78 76 75
64 63 81
235 81 63
63 226 235
226 227 236
236 235 226
237 236 227
227 228 237
228 229 238
237 228 238
230 239 229
239 238 229
240 239 230
231 240 230
241 240 231
232 241 231
66 67 242
232 66 242
232 242 241
67 243 242
243 67 69
244 69 71
244 243 69
244 71 245
245 71 233
233 234 246
233 246 245
247 246 234
247 234 84
72 84 234
73 84 72
82 81 86
79 78 87
75 80 248
78 248 87
78 75 248
89 248 80
81 235 249
249 86 81
250 249 235
235 236 250
237 251 236
251 250 236
251 237 252
238 252 237
239 253 238
252 238 253
254 253 239
240 254 239
254 240 255
241 255 240
241 256 255
256 241 242
257 242 243
257 256 242
243 258 257
244 258 243
244 245 258
245 259 258
259 245 246
246 247 260
246 260 259
260 247 261
261 247 92
84 92 247
84 83 92
93 85 86
262 86 249
86 262 93
95 94 93
263 87 248
87 98 88
87 263 98
100 97 98
96 95 99
248 89 264
263 248 264
265 90 99
89 90 265
89 265 264
266 262 249
249 250 266
267 250 251
267 266 250
251 268 267
252 268 251
268 252 269
253 269 252
270 253 254
269 253 270
270 254 271
271 254 255
272 257 258
273 271 255
273 255 256
274 273 256
274 256 257
272 274 257
275 258 259
272 258 275
259 260 276
275 259 276
277 260 261
277 276 260
277 261 278
261 92 279
278 261 279
102 279 92
91 102 92
280 278 279
281 95 93
282 93 262
281 93 282
283 262 266
262 283 282
284 99 95
95 281 284
285 99 284
100 105 101
263 286 98
263 264 286
100 98 287
287 98 286
100 287 105
288 265 99
285 288 99
264 289 286
264 265 289
288 289 265
105 109 104
290 266 267
266 290 283
268 291 267
290 267 291
292 291 268
292 268 269
270 293 269
292 269 293
294 270 271
293 270 294
295 294 271
271 273 295
272 296 274
272 275 296
273 274 297
297 295 273
296 297 274
276 298 275
296 275 298
298 276 299
277 299 276
300 299 277
278 300 277
300 278 301
280 301 278
102 107 279
280 279 107
103 107 102
280 107 302
280 302 301
303 284 281
281 282 303
304 282 283
282 304 303
305 283 290
283 305 304
306 284 303
285 284 306
285 307 288
285 306 307
109 105 308
105 287 308
309 109 308
308 287 310
286 289 310
287 286 310
289 311 310
307 311 288
311 289 288
309 112 109
112 108 109
305 290 312
312 290 291
313 312 291
314 291 292
313 291 314
315 292 293
314 292 315
316 293 294
315 293 316
317 316 294
294 295 317
295 297 318
318 317 295
298 319 296
297 296 319
318 297 319
319 298 320
299 320 298
300 321 299
321 320 299
321 300 322
301 322 300
323 301 302
322 301 323
302 107 111
106 111 107
324 302 111
302 324 323
306 303 325
303 304 325
326 325 304
326 304 305
327 305 312
327 326 305
306 325 328
328 307 306
328 329 307
329 311 307
330 112 309
308 310 331
309 308 331
309 331 330
332 331 310
332 310 311
329 332 311
330 122 112
112 122 113
333 327 312
313 333 312
313 314 334
313 334 333
334 314 335
335 314 315
336 315 316
336 335 315
316 337 336
337 316 317
337 317 338
318 338 317
319 339 318
338 318 339
320 339 319
321 340 320
320 340 339
341 340 321
322 341 321
110 120 111
341 322 342
323 342 322
324 343 323
342 323 343
344 111 120
324 111 344
324 344 343
345 328 325
346 345 325
346 325 326
327 347 326
346 326 347
348 347 327
327 333 348
349 329 328
345 349 328
350 332 329
349 350 329
330 331 351
330 351 122
352 331 332
351 331 352
350 352 332
122 351 353
131 122 353
131 121 122
354 348 333
333 334 354
334 335 355
355 354 334
356 337 338
357 335 336
357 355 335
337 356 358
358 336 337
336 358 357
356 338 359
339 359 338
339 340 359
124 116 115
123 125 124
360 118 116
124 360 116
127 118 360
361 359 340
361 340 341
342 362 341
362 361 341
120 119 130
363 120 130
344 120 363
362 342 364
343 364 342
365 344 363
364 343 365
343 344 365
345 346 366
345 366 349
347 367 346
366 346 367
348 368 347
367 347 368
368 348 369
354 369 348
349 370 350
349 366 370
352 350 371
370 371 350
351 352 372
372 352 371
351 372 353
372 373 353
374 353 373
136 353 374
131 353 136