% Model:              Heat_Equation.mph
% Version:            COMSOL 5.6.0.401
% Date:               May 24 2023, 19:12
% Table:              Table 1 - System Matrix 1
% Row                    Column                   Value
1                        1                        334.4336404493918
2                        1                        20.897392839371413
3                        1                        -83.58957135748577
4                        1                        69.62297764328488
6                        1                        -278.4919105731394
8                        1                        -83.83003866856451
9                        1                        20.957509667141114
1                        2                        20.897392839371413
2                        2                        733.370267808351
3                        2                        -83.58957135748588
4                        2                        130.55241760631725
5                        2                        -522.2096704252685
10                       2                        36.720118187723656
11                       2                        -146.88047275089463
12                       2                        56.286827302705
14                       2                        -225.1473092108202
1                        3                        -83.58957135748577
2                        3                        -83.58957135748588
3                        3                        979.5383543160631
5                        3                        -278.3244365819234
6                        3                        -534.0347750191685
1                        4                        69.62297764328488
2                        4                        130.55241760631725
4                        4                        1484.4140767296253
5                        4                        -522.2096704252687
6                        4                        -278.4919105731398
7                        4                        -472.6896114986987
9                        4                        118.17240287467473
12                       4                        79.0045191362445
15                       4                        -316.0180765449782
16                       4                        -389.80949993075114
18                       4                        97.45237498268779
2                        5                        -522.2096704252685
3                        5                        -278.3244365819234
4                        5                        -522.2096704252687
5                        5                        1956.3800801180867
6                        5                        -167.17914271497082
14                       5                        -322.80347126677583
15                       5                        -143.65368870387988
1                        6                        -278.4919105731394
3                        6                        -534.0347750191685
4                        6                        -278.4919105731398
5                        6                        -167.17914271497082
6                        6                        1958.490629191635
7                        6                        -167.6600773371284
8                        6                        -532.632812974089
4                        7                        -472.6896114986987
6                        7                        -167.6600773371284
7                        7                        1924.4159196937949
8                        7                        -278.659384564354
9                        7                        -472.6896114986986
16                       7                        -186.48625148417705
17                       7                        -346.2309833107388
1                        8                        -83.83003866856451
6                        8                        -532.632812974089
7                        8                        -278.659384564354
8                        8                        978.9522748755717
9                        8                        -83.83003866856467
1                        9                        20.957509667141114
4                        9                        118.17240287467473
7                        9                        -472.6896114986986
8                        9                        -83.83003866856467
9                        9                        724.3683752155592
17                       9                        -288.65772718320534
18                       9                        72.16443179580133
21                       9                        -120.64712293694511
22                       9                        30.161780734236256
2                        10                       36.720118187723656
10                       10                       696.5101436815856
11                       10                       -146.88047275089463
12                       10                       77.69391518680177
13                       10                       -310.7756607472072
25                       10                       28.5277479836932
26                       10                       -114.11099193477287
27                       10                       89.22826653564357
29                       10                       -356.9130661425742
2                        11                       -146.88047275089463
10                       11                       -146.88047275089463
11                       11                       924.1272382190141
13                       11                       -306.64092971775875
14                       11                       -323.72536299946637
2                        12                       56.286827302705
4                        12                       79.0045191362445
10                       12                       77.69391518680177
12                       12                       1372.909489413414
13                       12                       -310.7756607472071
14                       12                       -225.14730921082008
15                       12                       -316.01807654497793
18                       12                       44.187459999803615
19                       12                       -176.74983999921466
27                       12                       48.3283181427618
30                       12                       -193.31327257104732
31                       12                       69.22830142651173
33                       12                       -276.91320570604694
34                       12                       82.90715527631014
35                       12                       -331.6286211052403
10                       13                       -310.7756607472072
11                       13                       -306.64092971775875
12                       13                       -310.7756607472071
13                       13                       1853.3164889161258
14                       13                       -293.7609455017883
29                       13                       -258.70064137776217
30                       13                       -372.66265082440276
2                        14                       -225.1473092108202
5                        14                       -322.80347126677583
11                       14                       -323.72536299946637
12                       14                       -225.14730921082008
13                       14                       -293.7609455017883
14                       14                       1900.968964021036
15                       14                       -510.3845658313661
4                        15                       -316.0180765449782
5                        15                       -143.65368870387988
12                       15                       -316.01807654497793
14                       15                       -510.3845658313661
15                       15                       1922.0243863536969
16                       15                       -202.56196217773427
19                       15                       -433.3880165507611
4                        16                       -389.80949993075114
7                        16                       -186.48625148417705
15                       16                       -202.56196217773427
16                       16                       1890.6463053698972
17                       16                       -412.74641002330605
18                       16                       -389.80949993075103
19                       16                       -309.2326818231782
7                        17                       -346.2309833107388
9                        17                       -288.65772718320534
16                       17                       -412.74641002330605
17                       17                       1878.3821472045106
18                       17                       -288.65772718320534
20                       17                       -241.2942458738894
21                       17                       -300.79505363016636
4                        18                       97.45237498268779
9                        18                       72.16443179580133
12                       18                       44.187459999803615
16                       18                       -389.80949993075103
17                       18                       -288.65772718320534
18                       18                       1434.633823608217
19                       18                       -176.74983999921471
20                       18                       -341.17472711314366
22                       18                       85.2936817782859
34                       18                       121.23912290557362
36                       18                       -484.95649162229427
40                       18                       57.87420307392061
41                       18                       -231.49681229568264
12                       19                       -176.74983999921466
15                       19                       -433.3880165507611
16                       19                       -309.2326818231782
18                       19                       -176.74983999921471
19                       19                       1903.7520635612948
35                       19                       -426.7259645480733
36                       19                       -380.90572064085336
17                       20                       -241.2942458738894
18                       20                       -341.17472711314366
20                       20                       1862.9831294524593
21                       20                       -390.8292028822317
22                       20                       -341.1747271131436
38                       20                       -281.8651968570615
41                       20                       -266.6450296129901
9                        21                       -120.64712293694511
17                       21                       -300.79505363016636
20                       21                       -390.8292028822317
21                       21                       932.9185023862879
22                       21                       -120.64712293694504
9                        22                       30.161780734236256
18                       22                       85.2936817782859
20                       22                       -341.1747271131436
21                       22                       -120.64712293694504
22                       22                       697.3040261942183
23                       22                       -182.1627991647687
24                       22                       45.54069979119218
38                       22                       -285.7540523774351
40                       22                       71.43851309435875
22                       23                       -182.1627991647687
23                       23                       928.2710953023391
24                       23                       -182.1627991647687
38                       23                       -259.0824218309239
39                       23                       -304.8630751418781
22                       24                       45.54069979119218
23                       24                       -182.1627991647687
24                       24                       733.9142943555486
39                       24                       -182.3233421229884
40                       24                       45.580835530747024
43                       24                       128.02983162425707
45                       24                       -512.1193264970279
47                       24                       -101.94692468928127
48                       24                       25.48673117232028
10                       25                       28.5277479836932
25                       25                       697.2371763918663
26                       25                       -114.11099193477283
27                       25                       87.99655839574123
28                       25                       -351.9862335829649
49                       25                       33.49412822174392
50                       25                       -133.97651288697574
51                       25                       82.39395752944408
53                       25                       -329.57583011777626
10                       26                       -114.11099193477287
25                       26                       -114.11099193477283
26                       26                       932.203714935235
28                       26                       -341.16348146074364
29                       26                       -362.81824960494583
10                       27                       89.22826653564357
12                       27                       48.3283181427618
25                       27                       87.99655839574123
27                       27                       1423.337301696525
28                       27                       -351.9862335829649
29                       27                       -356.9130661425743
30                       27                       -193.31327257104743
31                       27                       117.67980943125221
32                       27                       -470.71923772500844
51                       27                       77.43962861624368
54                       27                       -309.7585144649748
56                       27                       -215.09274444213284
57                       27                       53.77318611053315
25                       28                       -351.9862335829649
26                       28                       -341.16348146074364
27                       28                       -351.9862335829649
28                       28                       1857.4129544957657
29                       28                       -228.22198386954489
53                       28                       -282.6223645843023
54                       28                       -301.4326574152456
10                       29                       -356.9130661425742
13                       29                       -258.70064137776217
26                       29                       -362.81824960494583
27                       29                       -356.9130661425743
28                       29                       -228.22198386954489
29                       29                       1861.3929656323467
30                       29                       -297.8259584949459
12                       30                       -193.31327257104732
13                       30                       -372.66265082440276
27                       30                       -193.31327257104743
29                       30                       -297.8259584949459
30                       30                       1904.6871437858324
32                       30                       -363.98183454739967
33                       30                       -483.5901547769902
12                       31                       69.22830142651173
27                       31                       117.67980943125221
31                       31                       1491.6181585288055
32                       31                       -470.7192377250087
33                       31                       -276.91320570604717
34                       31                       129.85032722143623
37                       31                       -519.4013088857446
57                       31                       102.4766377728937
58                       31                       -409.9065510915748
61                       31                       77.97097699084196
62                       31                       -311.8839079633681
27                       32                       -470.71923772500844
30                       32                       -363.98183454739967
31                       32                       -470.7192377250087
32                       32                       1942.9913825254794
33                       32                       -127.925903764331
56                       32                       -372.42483658905735
58                       32                       -137.22033217467498
12                       33                       -276.91320570604694
30                       33                       -483.5901547769902
31                       33                       -276.91320570604717
32                       33                       -127.925903764331
33                       33                       1936.5619429321443
35                       33                       -488.867951409104
37                       33                       -282.35152156962556
12                       34                       82.90715527631014
18                       34                       121.23912290557362
31                       34                       129.85032722143623
34                       34                       1498.348466420809
35                       34                       -331.62862110524065
36                       34                       -484.9564916222944
37                       34                       -519.4013088857447
40                       34                       80.4059586066145
42                       34                       -321.6238344264582
59                       34                       -340.1876991880105
61                       34                       85.04692479700259
12                       35                       -331.6286211052403
19                       35                       -426.7259645480733
33                       35                       -488.867951409104
34                       35                       -331.62862110524065
35                       35                       1919.6334528530438
36                       35                       -150.93771782069356
37                       35                       -189.84457686469253
18                       36                       -484.95649162229427
19                       36                       -380.90572064085336
34                       36                       -484.9564916222944
35                       36                       -150.93771782069356
36                       36                       1939.7588878156962
41                       36                       -256.8740383752595
42                       36                       -181.12842773430185
31                       37                       -519.4013088857446
33                       37                       -282.35152156962556
34                       37                       -519.4013088857447
35                       37                       -189.84457686469253
37                       37                       1943.9369467500628
59                       37                       -238.8783721123009
62                       37                       -194.05985843195478
20                       38                       -281.8651968570615
22                       38                       -285.7540523774351
23                       38                       -259.0824218309239
38                       38                       1858.3357223685098
39                       38                       -364.3255983295362
40                       38                       -285.75405237743496
41                       38                       -381.5544005961188
23                       39                       -304.8630751418781
24                       39                       -182.3233421229884
38                       39                       -364.3255983295362
39                       39                       1923.7942949642809
40                       39                       -182.32334212298827
44                       39                       -531.6405431731536
45                       39                       -358.3183940737371
18                       40                       57.87420307392061
22                       40                       71.43851309435875
24                       40                       45.580835530747024
34                       40                       80.4059586066145
38                       40                       -285.75405237743496
39                       40                       -182.32334212298827
40                       40                       1379.0782981061056
41                       40                       -231.49681229568245
42                       40                       -321.62383442645785
43                       40                       88.54844772845377
44                       40                       -354.1937909138148
60                       40                       -169.89044998266013
61                       40                       42.472612495664976
65                       40                       73.37219550560954
66                       40                       -293.48878202243816
18                       41                       -231.49681229568264
20                       41                       -266.6450296129901
36                       41                       -256.8740383752595
38                       41                       -381.5544005961188
40                       41                       -231.49681229568245
41                       41                       1911.2541118722452
42                       41                       -543.1870186965125
34                       42                       -321.6238344264582
36                       42                       -181.12842773430185
40                       42                       -321.62383442645785
41                       42                       -543.1870186965125
42                       42                       1964.5078998555246
59                       42                       -110.62924462773069
60                       42                       -486.31553994406386
24                       43                       128.02983162425707
40                       43                       88.54844772845377
43                       43                       1496.6532484054394
44                       43                       -354.1937909138151
45                       43                       -512.119326497028
46                       43                       -253.0624053539113
48                       43                       63.26560133847776
64                       43                       -337.73228873878423
65                       43                       84.43307218469604
68                       43                       -538.4298530370498
70                       43                       134.60746325926254
39                       44                       -531.6405431731536
40                       44                       -354.1937909138148
43                       44                       -354.1937909138151
44                       44                       1940.4874276792748
45                       44                       -105.56426241505125
64                       44                       -186.60977235639587
66                       44                       -408.2852679070448
24                       45                       -512.1193264970279
39                       45                       -358.3183940737371
43                       45                       -512.119326497028
44                       45                       -105.56426241505125
45                       45                       1956.2058895741511
46                       45                       -203.89384937856164
47                       45                       -264.19073071274585
43                       46                       -253.0624053539113
45                       46                       -203.89384937856164
46                       46                       1956.704881156372
47                       46                       -492.59810982089994
48                       46                       -253.06240535391095
68                       46                       -176.65096974673256
69                       46                       -577.4371415023569
24                       47                       -101.94692468928127
45                       47                       -264.19073071274585
46                       47                       -492.59810982089994
47                       47                       960.6826899122079
48                       47                       -101.94692468928115
24                       48                       25.48673117232028
43                       48                       63.26560133847776
46                       48                       -253.06240535391095
47                       48                       -101.94692468928115
48                       48                       332.5011111874186
69                       48                       -88.32548487336658
70                       48                       22.08137121834164
25                       49                       33.49412822174392
49                       49                       696.0028077714891
50                       49                       -133.97651288697574
51                       49                       73.00695448154194
52                       49                       -292.0278179261678
72                       49                       34.02462230398164
73                       49                       -136.0984892159266
74                       49                       91.47523091656248
76                       49                       -365.9009236662498
25                       50                       -133.97651288697574
49                       50                       -133.97651288697574
50                       50                       927.0960121557849
52                       50                       -357.7190028203051
53                       50                       -301.4239835615288
25                       51                       82.39395752944408
27                       51                       77.43962861624368
49                       51                       73.00695448154194
51                       51                       1388.7992310784175
52                       51                       -292.0278179261678
53                       51                       -329.5758301177763
54                       51                       -309.7585144649747
55                       51                       -278.57851687753976
57                       51                       69.64462921938494
74                       51                       74.7578194535638
77                       51                       -299.03127781425513
78                       51                       -342.7603509038453
79                       51                       85.69008772596133
49                       52                       -292.0278179261678
50                       52                       -357.7190028203051
51                       52                       -292.0278179261678
52                       52                       1853.529372896309
53                       52                       -267.9530257739505
76                       52                       -288.219166128258
77                       52                       -355.5825423214605
25                       53                       -329.57583011777626
28                       53                       -282.6223645843023
50                       53                       -301.4239835615288
51                       53                       -329.5758301177763
52                       53                       -267.9530257739505
53                       53                       1852.3052517163158
54                       53                       -341.15421756098186
27                       54                       -309.7585144649748
28                       54                       -301.4326574152456
51                       54                       -309.7585144649747
53                       54                       -341.15421756098186
54                       54                       1849.9696719908625
55                       54                       -292.96515670958894
56                       54                       -294.9006113750976
51                       55                       -278.57851687753976
54                       55                       -292.96515670958894
55                       55                       1851.2442081427052
56                       55                       -336.8946643456452
57                       55                       -278.5785168775398