% Model:              simplets_Heat_Equation.mph
% Version:            COMSOL 5.6.0.401
% Date:               Jun 12 2023, 16:55
% Table:              Table 1 - System Matrix 1
% Row                    Column                   Value
1                        1                        835.3558172229375
2                        1                        -91.9463126663756
3                        1                        22.98657816659389
4                        1                        70.49599448588809
5                        1                        -281.9839779435522
8                        1                        18.302699755163985
9                        1                        -73.21079902065601
1                        2                        -91.9463126663756
2                        2                        981.4073388488243
3                        2                        -91.94631266637575
5                        2                        -544.4284229797779
6                        2                        -253.08629053629542
1                        3                        22.98657816659389
2                        3                        -91.94631266637575
3                        3                        725.8013715528109
4                        3                        123.75600972464426
6                        3                        -495.0240388985767
11                       3                        -272.1426255076595
12                       3                        68.03565637691486
14                       3                        -108.62218499780393
15                       3                        27.155546249450953
1                        4                        70.49599448588809
3                        4                        123.75600972464426
4                        4                        1482.1373211012517
5                        4                        -281.98397794355265
6                        4                        -495.0240388985768
7                        4                        -496.61891078771407
8                        4                        124.15472769692857
10                       4                        -361.45645003119466
12                       4                        90.36411250779867
18                       4                        -341.0997171406336
19                       4                        85.27492928515838
1                        5                        -281.9839779435522
2                        5                        -544.4284229797779
4                        5                        -281.98397794355265
5                        5                        1961.174956485377
6                        5                        -183.89262533275064
7                        5                        -146.42159804131146
9                        5                        -522.4643542444327
2                        6                        -253.08629053629542
3                        6                        -495.0240388985767
4                        6                        -495.0240388985768
5                        6                        -183.89262533275064
6                        6                        1930.053003937197
10                       6                        -196.99122628550558
11                       6                        -306.0347839854923
4                        7                        -496.61891078771407
5                        7                        -146.42159804131146
7                        7                        1943.2011742860425
8                        7                        -496.61891078771384
9                        7                        -310.88166535080745
18                       7                        -155.96774653969146
20                       7                        -336.69234277880446
1                        8                        18.302699755163985
4                        8                        124.15472769692857
7                        8                        -496.61891078771384
8                        8                        729.2303269321364
9                        8                        -73.21079902065615
19                       8                        64.04364806897357
20                       8                        -256.1745922758943
22                       8                        -146.3028004919188
24                       8                        36.57570012297968
1                        9                        -73.21079902065601
5                        9                        -522.4643542444327
7                        9                        -310.88166535080745
8                        9                        -73.21079902065615
9                        9                        979.7676176365519
4                        10                       -361.45645003119466
6                        10                       -196.99122628550558
10                       10                       1895.202991501862
11                       10                       -445.6196548173731
12                       10                       -361.45645003119444
18                       10                       -184.17211883413455
21                       10                       -345.50709150246036
3                        11                       -272.1426255076595
6                        11                       -306.0347839854923
10                       11                       -445.6196548173731
11                       11                       1883.3923127713774
12                       11                       -272.1426255076595
13                       11                       -217.24436999560706
14                       11                       -370.2082529575868
3                        12                       68.03565637691486
4                        12                       90.36411250779867
10                       12                       -361.45645003119444
11                       12                       -272.1426255076595
12                       12                       1402.7579831792696
13                       12                       -357.7302337618379
15                       12                       89.4325584404595
19                       12                       61.66961456811057
21                       12                       -246.6784582724424
25                       12                       -358.2667759376909
26                       12                       89.56669398442276
28                       12                       68.5173585153842
31                       12                       -274.0694340615369
11                       13                       -217.24436999560706
12                       13                       -357.7302337618379
13                       13                       1862.4963637640308
14                       13                       -347.2940247298116
15                       13                       -357.7302337618379
29                       13                       -252.6489741961171
31                       13                       -329.8485273188199
3                        14                       -108.62218499780393
11                       14                       -370.2082529575868
13                       14                       -347.2940247298116
14                       14                       934.7466476830059
15                       14                       -108.62218499780394
3                        15                       27.155546249450953
12                       15                       89.4325584404595
13                       15                       -357.7302337618379
14                       15                       -108.62218499780394
15                       15                       699.7787194143948
16                       15                       -117.37549417891158
17                       15                       29.34387354472788
28                       15                       87.32759490349356
29                       15                       -349.3103796139742
15                       16                       -117.37549417891158
16                       16                       931.3893103857908
17                       16                       -117.37549417891158
29                       16                       -327.8660901188416
30                       16                       -368.7722319091264
15                       17                       29.34387354472788
16                       17                       -117.37549417891158
17                       17                       721.8099397031733
28                       17                       64.45980989181399
30                       17                       -257.839239567256
33                       17                       121.48978461846968
35                       17                       -485.9591384738785
37                       17                       -101.23938071751972
38                       17                       25.30984517937989
4                        18                       -341.0997171406336
7                        18                       -155.96774653969146
10                       18                       -184.17211883413455
18                       18                       1909.9908830629797
19                       18                       -341.0997171406333
20                       18                       -470.77346733099284
21                       18                       -416.87811607689486
4                        19                       85.27492928515838
8                        19                       64.04364806897357
12                       19                       61.66961456811057
18                       19                       -341.0997171406333
19                       19                       1363.8961694404443
20                       19                       -256.17459227589427
21                       19                       -246.6784582724423
23                       19                       -254.86641586025723
24                       19                       63.71660396506428
26                       19                       51.617855160699264
27                       19                       -206.47142064279714
39                       19                       72.7622660874155
40                       19                       -291.0490643496619
42                       19                       55.54713934472721
44                       19                       -222.18855737890885
7                        20                       -336.69234277880446
8                        20                       -256.1745922758943
18                       20                       -470.77346733099284
19                       20                       -256.17459227589427
20                       20                       1890.0305150579427
22                       20                       -277.6099194125211
23                       20                       -292.60560098383655
10                       21                       -345.50709150246036
12                       21                       -246.6784582724424
18                       21                       -416.87811607689486
19                       21                       -246.6784582724423
21                       21                       1880.8717548764955
25                       21                       -231.7384719366287
27                       21                       -393.3911588156277
8                        22                       -146.3028004919188
20                       22                       -277.6099194125211
22                       22                       926.5969584084537
23                       22                       -356.3814380120953
24                       22                       -146.30280049191873
19                       23                       -254.86641586025723
20                       23                       -292.60560098383655
22                       23                       -356.3814380120953
23                       23                       1875.0593884932412
24                       23                       -254.8664158602573
43                       23                       -257.5718125605504
44                       23                       -458.76770521624485
8                        24                       36.57570012297968
19                       24                       63.71660396506428
22                       24                       -146.30280049191873
23                       24                       -254.8664158602573
24                       24                       709.0834326850767
42                       24                       110.58748266421769
43                       24                       -442.3499306568706
47                       24                       25.48135747609755
48                       24                       -101.9254299043903
12                       25                       -358.2667759376909
21                       25                       -231.7384719366287
25                       25                       1858.3933223772563
26                       25                       -358.2667759376909
27                       25                       -309.18479771074846
31                       25                       -305.44660692754314
32                       25                       -295.48989392695484
12                       26                       89.56669398442276
19                       26                       51.617855160699264
25                       26                       -358.2667759376909
26                       26                       1427.3998822904944
27                       26                       -206.47142064279734
28                       26                       92.64496535940808
32                       26                       -370.5798614376322
39                       26                       105.07712133630812
41                       26                       -420.30848534523227
50                       26                       -318.0114498598898
51                       26                       79.50286246497245
53                       26                       57.39046245768809
55                       26                       -229.5618498307526
19                       27                       -206.47142064279714
21                       27                       -393.3911588156277
25                       27                       -309.18479771074846
26                       27                       -206.47142064279734
27                       27                       1897.0047058626026
40                       27                       -489.9612628166043
41                       27                       -291.5246452340283
12                       28                       68.5173585153842
15                       28                       87.32759490349356
17                       28                       64.45980989181399
26                       28                       92.64496535940808
28                       28                       1409.5609305311102
29                       28                       -349.3103796139742
30                       28                       -257.839239567256
31                       28                       -274.06943406153687
32                       28                       -370.5798614376323
33                       28                       97.51241889515158
34                       28                       -390.04967558060616
53                       28                       59.3914959451193
54                       28                       -237.56598378047738
13                       29                       -252.6489741961171
15                       29                       -349.3103796139742
16                       29                       -327.8660901188416
28                       29                       -349.3103796139742
29                       29                       1859.1390264668157
30                       29                       -234.75098835782237
31                       29                       -345.252214566087
16                       30                       -368.7722319091264
17                       30                       -257.839239567256
28                       30                       -257.839239567256
29                       30                       -234.75098835782237
30                       30                       1881.1691332007547
34                       30                       -442.71759894354676
35                       30                       -319.24983485574785
12                       31                       -274.0694340615369
13                       31                       -329.8485273188199
25                       31                       -305.44660692754314
28                       31                       -274.06943406153687
29                       31                       -345.252214566087
31                       31                       1851.8286099952754
32                       31                       -323.1423930597521
25                       32                       -295.48989392695484
26                       32                       -370.5798614376322
28                       32                       -370.5798614376323
31                       32                       -323.1423930597521
32                       32                       1869.0119450600087
54                       32                       -207.11685415968094
55                       32                       -302.10308103835695
17                       33                       121.48978461846968
28                       33                       97.51241889515158
33                       33                       1491.312226318888
34                       33                       -390.0496755806063
35                       33                       -485.9591384738786
36                       33                       -267.09052717178554
38                       33                       66.77263179294633
52                       33                       -312.597457565783
53                       33                       78.14936439144569
57                       33                       -532.7195029664668
59                       33                       133.17987574161677
28                       34                       -390.04967558060616
30                       34                       -442.71759894354676
33                       34                       -390.0496755806063
34                       34                       1906.5973964214288
35                       34                       -187.81238901566869
52                       34                       -173.02888652259588
54                       34                       -322.93917077840587
17                       35                       -485.9591384738785
30                       35                       -319.24983485574785
33                       35                       -485.9591384738786
34                       35                       -187.81238901566869
35                       35                       1923.7683077939432
36                       35                       -202.47876143503845
37                       35                       -242.30904553973164
33                       36                       -267.09052717178554
35                       36                       -202.47876143503845
36                       36                       1957.1667126246498
37                       36                       -529.2006780042079
38                       36                       -267.0905271717852
57                       36                       -153.8079572803039
58                       36                       -537.4982615615293
17                       37                       -101.23938071751972
35                       37                       -242.30904553973164
36                       37                       -529.2006780042079
37                       37                       973.9884849789785
38                       37                       -101.23938071751958
17                       38                       25.30984517937989
33                       38                       66.77263179294633
36                       38                       -267.0905271717852
37                       38                       -101.23938071751958
38                       38                       333.9254148970923
58                       38                       -76.90397864015226
59                       38                       19.225994660038058
19                       39                       72.7622660874155
26                       39                       105.07712133630812
39                       39                       1467.9716418536843
40                       39                       -291.0490643496622
41                       39                       -420.30848534523244
42                       39                       104.90146742990837
45                       39                       -419.60586971963335
49                       39                       -422.54275877995144
51                       39                       105.63568969498786
61                       39                       -403.7893442771025
62                       39                       100.94733606927562
19                       40                       -291.0490643496619
27                       40                       -489.9612628166043
39                       40                       -291.0490643496622
40                       40                       1922.2098367367794
41                       40                       -181.20436934896406
44                       40                       -482.1407736746217
45                       40                       -186.8053021972658
26                       41                       -420.30848534523227
27                       41                       -291.5246452340283
39                       41                       -420.30848534523244
40                       41                       -181.20436934896406
41                       41                       1917.413906081147
49                       41                       -165.65238845404906
50                       41                       -438.41553235364154
19                       42                       55.54713934472721
24                       42                       110.58748266421769
39                       42                       104.90146742990837
42                       42                       1422.5100062101797
43                       42                       -442.3499306568705
44                       42                       -222.18855737890908
45                       42                       -419.6058697196331
46                       42                       -315.11886826713675
47                       42                       78.7797170667842
62                       42                       67.66135174666536
63                       42                       -270.6454069866615
66                       42                       -226.77137527103122
67                       42                       56.69284381775776
23                       43                       -257.5718125605504
24                       43                       -442.3499306568706
42                       43                       -442.3499306568705
43                       43                       1892.0325809448148
44                       43                       -232.12291230799164
46                       43                       -203.85085980877983
48                       43                       -313.78713495375223
19                       44                       -222.18855737890885
23                       44                       -458.76770521624485
40                       44                       -482.1407736746217
42                       44                       -222.18855737890908
43                       44                       -232.12291230799164
44                       44                       1907.9819894219695
45                       44                       -290.5734834652939
39                       45                       -419.60586971963335
40                       45                       -186.8053021972658
42                       45                       -419.6058697196331
44                       45                       -290.5734834652939
45                       45                       1911.7635527982652
61                       45                       -168.620252459722
63                       45                       -426.5527752367174
42                       46                       -315.11886826713675
43                       46                       -203.85085980877983
46                       46                       1883.0088824614504
47                       46                       -315.1188682671368
48                       46                       -425.932156097494
65                       46                       -212.85798330132764
66                       46                       -410.13014671957615
24                       47                       25.48135747609755
42                       47                       78.7797170667842
46                       47                       -315.1188682671368
47                       47                       705.2890196320782
48                       47                       -101.92542990439027
65                       47                       -414.0969108341353
67                       47                       103.52422770853386
70                       47                       27.31103762594412
71                       47                       -109.24415050377661
24                       48                       -101.9254299043903
43                       48                       -313.78713495375223
46                       48                       -425.932156097494
47                       48                       -101.92542990439027
48                       48                       943.5701508600264
39                       49                       -422.54275877995144
41                       49                       -165.65238845404906
49                       49                       1906.8137333387901
50                       49                       -350.6557078738582
51                       49                       -422.5427587799512
61                       49                       -164.39420613349557
64                       49                       -381.0259133174851
26                       50                       -318.0114498598898
41                       50                       -438.41553235364154
49                       50                       -350.6557078738582
50                       50                       1906.770221519405
51                       50                       -318.0114498598898
55                       50                       -229.6692360703039
56                       50                       -252.00684550182223
26                       51                       79.50286246497245
39                       51                       105.63568969498786
49                       51                       -422.5427587799512
50                       51                       -318.0114498598898
51                       51                       1428.26220191432
53                       51                       58.769703631982466
56                       51                       -235.07881452793015
62                       51                       61.225295061194046
64                       51                       -244.90118024477624
73                       51                       -264.9349835448345
74                       51                       66.23374588620861
75                       51                       104.72010389876192
76                       51                       -418.88041559504757
33                       52                       -312.597457565783
34                       52                       -173.02888652259588
52                       52                       1937.4258304799694
53                       52                       -312.59745756578263
54                       52                       -460.8495163054623
57                       52                       -150.41176814894453
60                       52                       -527.9407443714016
26                       53                       57.39046245768809
28                       53                       59.3914959451193
33                       53                       78.14936439144569
51                       53                       58.769703631982466
52                       53                       -312.59745756578263
53                       53                       1362.073622805064
54                       53                       -237.5659837804772
55                       53                       -229.56184983075244
56                       53                       -235.07881452792992
59                       53                       56.50475181758462
60                       53                       -226.01900727033856
75                       53                       57.43420716397864
77                       53                       -229.73682865591468
79                       53                       -345.5382221088922
81                       53                       86.38455552722307
28                       54                       -237.56598378047738
32                       54                       -207.11685415968094
34                       54                       -322.93917077840587