<?xml version="1.0" encoding="UTF-8"?>
<VTKFile type="UnstructuredGrid" version="0.1" byte_order="LittleEndian">
<UnstructuredGrid>
<Piece NumberOfPoints="4497" NumberOfCells="8293">
<PointData>
<DataArray type="Float64" Name="Current_density_norm_@_t" Format="ascii">
3.735080775679942428e-06
5.023698190161008540e-06
3.233032147020558382e-06
2.431987867907602896e-06
2.256595554916056275e-06
1.395202172182727073e-06
9.455958042841165784e-07
4.971836365769611674e-07
-8.005765689859901091e-07
1.806392817366827468e-05
1.810789260117721077e-05
1.815999683811945489e-05
1.672307130539712929e-05
1.676197679617271583e-05
1.682265238477124124e-05
1.515252270834135934e-05
1.519206525906723331e-05
1.527509621439366588e-05
4.726983328063809846e-06
4.686840368318557727e-06
4.820292421752476721e-06
8.015857749354537214e-06
7.957091325740113877e-06
7.799424829982589972e-06
8.103765713559563363e-06
8.277242905848774683e-06
1.064938306602904924e-05
1.064603997997393085e-05
1.083639189980918039e-05
1.084215218637584558e-05
1.107241084469412997e-05
1.046488987517602887e-05
1.044003080979845333e-05
1.002756107891509372e-05
9.916398144797849642e-06
1.018922186540447836e-05
9.751888158220795439e-06
9.642001318951811013e-06
9.417143192492254881e-06
9.367658021686123986e-06
9.182815459728396507e-06
9.096316131784706373e-06
7.684039159817932174e-06
7.597740801527602634e-06
8.936484516815093940e-06
8.827583303660274970e-06
8.651318327908290965e-06
8.555666067201548030e-06
8.411300815752078368e-06
7.529903462241637072e-06
7.345430902548096049e-06
1.024172975179352477e-05
3.545979152993674031e-06
1.824302241723755799e-06
1.851213143844527937e-06
8.557472592910858696e-07
0.000000000000000000e+00
-2.956340335024658465e-07
-5.663019381732697191e-07
1.776425269957091201e-05
1.775229035578580021e-05
1.784215513894966002e-05
1.769929848065484931e-05
1.808220797058030584e-05
1.815200876747739725e-05
1.764371509220800954e-05
1.781532116863058813e-05
1.791790906361465915e-05
1.771512707034458503e-05
1.762142733225474263e-05
1.805225243389593266e-05
1.789076373558103679e-05
1.801300748730304965e-05
1.798764233926302989e-05
1.798219580732286874e-05
1.809081180696904754e-05
1.754458189282148101e-05
1.753844262555555241e-05
1.775739152370538985e-05
1.764075486222477766e-05
1.797663018418057407e-05
1.783905906813398640e-05
1.787352069299337414e-05
1.754356758358033942e-05
1.798860450981878034e-05
1.744631920237157486e-05
1.743474295781420364e-05
1.764548405083262093e-05
1.784850969687797495e-05
1.773606064324747080e-05
1.747629744706775631e-05
1.785345565413377838e-05
1.732269288212208750e-05
1.731255203598353127e-05
1.755181251324199583e-05
1.768065319322299403e-05
1.735197752718836272e-05
1.767353359730391041e-05
1.716201936079345822e-05
1.713741362112515906e-05
1.742037100321624927e-05
1.719222099741051722e-05
1.743373398752356228e-05
1.695327040011708383e-05
1.695394488068263631e-05
1.707004004891655619e-05
1.711445947282845979e-05
1.668180707911441811e-05
1.673659142269767774e-05
1.664830060575931664e-05
1.668913864003283311e-05
1.632905838677463502e-05
1.621810073895606951e-05
1.612264762080403921e-05
1.587056070397025210e-05
1.562709324858431459e-05
1.536796307473438578e-05
1.527479592177070404e-05
1.491020107882858868e-05
1.439082634797443210e-05
1.429993779286487650e-05
1.450054217624292906e-05
1.351224107160966086e-05
1.324234199279667780e-05
1.203126272408644585e-05
1.238426792583347170e-05
1.117846818664392736e-05
1.075474910069298766e-05
9.254470241082296046e-06
9.300086300923759704e-06
9.834365491710446864e-06
8.006643009385243479e-06
7.741903976773508334e-06
6.843223495839486064e-06
6.601829588516712350e-06
5.834194530507886290e-06
6.014717424949498398e-06
5.393998158648739816e-06
5.095970760447326379e-06
8.376601530059323459e-06
3.785813696397054268e-06
4.057009152125109762e-06
3.242733048056866317e-06
6.643586180181966885e-06
6.050519873989724449e-06
4.637406634673120127e-06
5.363298779259285130e-06
3.976027152827729861e-06
3.261938874280756948e-06
2.536252145619452679e-06
5.387818234546470267e-06
4.709391437777814610e-06
4.033578001210779853e-06
3.422573653613957529e-06
2.694607895336109397e-06
1.857981486499532395e-06
4.377744107963289536e-06
3.650674510176428189e-06
2.918536145139232972e-06
2.270534978513287721e-06
1.496821712796225577e-06
3.492004166388508026e-06
2.469020104365040359e-06
1.833305903433382301e-06
1.121301293170261769e-06
2.645315029713555053e-06
1.654553477455870501e-06
7.113645109312037629e-07
1.275532185950275754e-06
1.749519652682296970e-06
8.411827998692570350e-07
1.178724444933206674e-06
1.511937820671155295e-07
-2.033878573010583052e-07
6.523334683413639648e-07
-8.821907644774628959e-08
3.097356907495583565e-07
-5.145099740148610651e-07
-8.097615189171823304e-07
-1.077153083980672506e-08
-7.339598503305926457e-07
-2.916537094768751045e-07
-8.252413887740889603e-07
-5.116561868026744660e-07
-1.089678839029086183e-06
-1.327901179304609738e-06
-1.003063071013199479e-06
-6.809604732955484296e-07
-1.103818954006995074e-06
-9.114132290657254092e-07
-8.112028389347409682e-07
-1.511832084538250046e-06
-1.160863944881816190e-06
-1.418865392553131056e-06
-1.227443219691287797e-06
-9.885240026069384660e-07
-1.649785827327498733e-06
-1.753545713626934337e-06
-1.215314568018530905e-06
-1.546627724887745508e-06
-1.407347129012323721e-06
-1.047953587765638427e-06
-1.219410008899750174e-06
-1.831337769718356618e-06
-1.394248644320889100e-06
-1.623360729007035188e-06
-1.093625240458384662e-06
-1.364191051237248253e-06
-1.224528603165152349e-06
-1.889777769195620809e-06
-1.535201013519947262e-06
-1.745580675512915035e-06
-1.472581286074450147e-06
-1.128687266918589509e-06
-1.340895556716098299e-06
-1.230493326504035476e-06
-1.933613833797463834e-06
-1.820725185179268994e-06
-1.647306242743956527e-06
-1.760442072084883983e-06
-1.430730522581706747e-06
-1.542609940228346862e-06
-1.156630307695369160e-06
-1.322594296344906211e-06
-1.240351676315202616e-06
-1.966606217425565387e-06
-1.878395462159032488e-06
-1.803125093224781383e-06
-1.395317153855140613e-06
-1.652484727779550712e-06
-1.510532656801781973e-06
-1.193828471889801284e-06
-1.297500168097798893e-06
-1.991546501597868388e-06
-1.903399910119364044e-06
-1.361587534358431845e-06
-1.874004443704397147e-06
-1.817583436554324431e-06
-1.721877247846770079e-06
-1.457034427815455807e-06
-1.586219950057541386e-06
-1.275625720338158668e-06
-1.970441258045418931e-06
-1.382240449935891530e-06
-1.898897514510314294e-06
-1.795974124714071630e-06
-1.664823606031590947e-06
-1.513447984530097129e-06
1.633425059285424370e-05
1.633415508043328015e-05
1.644946180780792444e-05
1.674568108978543749e-05
1.682377503542198074e-05
1.672785478446900707e-05
1.642594369888321782e-05
1.654791602895232307e-05
1.663783344480384015e-05
1.665891643082566777e-05
1.652823339170807475e-05
1.631946247814346603e-05
1.624109194808788924e-05
1.623226928439143633e-05
1.677046351819864002e-05
1.664927478770761906e-05
1.667078836672422593e-05
1.637608968382837764e-05
1.651481492342873067e-05
1.623743360639667897e-05
1.614432327413203221e-05
1.612223766159374608e-05
1.665759820871853957e-05
1.626009962774249806e-05
1.652900932610948558e-05
1.636641904770422306e-05
1.612842293035106846e-05
1.601309374374615461e-05
1.598024508802765138e-05
1.650552009217292709e-05
1.619247212925459988e-05
1.632646605417574005e-05
1.600739462979036744e-05
1.583896713888465000e-05
1.580816059398779987e-05
1.630005674842546743e-05
1.606583048851937439e-05
1.585147204890378502e-05
1.560733962616061101e-05
1.561402154427938803e-05
1.602283460972722586e-05
1.576578410615888691e-05
1.539312942032958946e-05
1.529919047777601184e-05
1.564875637163361645e-05
1.514269998487311461e-05
1.488920656464630751e-05
1.514384972414914569e-05
1.470574252451133110e-05
1.434374149376159194e-05
1.420363396449905044e-05
1.446246615461475604e-05
1.377702802575216684e-05
1.362290870708495907e-05
1.328907958658383505e-05
1.354274885416064100e-05
1.266850192541048997e-05
1.268399428930252709e-05
1.231733911604674078e-05
1.160239296521212656e-05
1.134974053180864510e-05
1.108417404439790641e-05
1.039503210762978350e-05
9.763553638567968370e-06
9.762987556436016691e-06
8.813021613656152055e-06
8.716845559315713647e-06
7.946693193719755929e-06
8.001043841623453764e-06
7.278756142453730163e-06
7.374895771730369738e-06
6.647378622332699124e-06
6.423778250458058369e-06
6.232907844352115136e-06
5.522420382698554302e-06
5.464858646877130667e-06
5.205577734033101720e-06
4.521493235610887738e-06
4.636677057112474226e-06
4.292929154293311094e-06
4.229024915157557804e-06
3.568577921859536714e-06
3.726449263101807530e-06
3.097514300739757689e-06
3.241596328653163448e-06
2.253867211417976765e-06
2.669352318417156369e-06
2.588521627838884139e-06
2.011467568348664401e-06
1.874059798743209203e-06
2.164069250482889467e-06
1.623823880112186798e-06
1.803522472593780220e-06
1.472716108432293308e-06
1.375898054125593559e-06
1.260316985451299704e-06
1.531150885420691913e-06
7.767679936817075334e-07
8.509858019470781663e-07
9.004607084694098620e-07
7.523105292172977838e-07
1.060425168033677046e-06
7.510430855109010524e-07
1.031774770376621102e-06
1.325006741227857595e-06
8.065703324315450643e-07
9.662735432911707758e-07
8.394171150587462863e-07
1.053707733721007745e-06
6.552523726792271668e-07
6.663737806360178276e-07
5.267807310018578221e-07
6.751156447411700291e-07
8.020272208227165005e-07
7.271637569535818841e-07
8.833533538638037419e-07
1.170124454693880929e-06
9.448823156232336685e-07
7.863740186385656289e-07
5.218821904704861597e-07
6.457942906472204810e-07
6.803148333170672927e-07
4.759668428299694410e-07
3.490164717508715148e-07
5.835327943962180397e-07
4.622798244703339742e-07
6.463974352165020225e-07
7.550168374613953185e-07
6.118443290396055517e-07
3.519257920766238022e-07
4.139135635914870638e-07
2.650346471058918311e-07
1.574085094482132239e-07
2.163658541704011846e-07
3.444922850593512944e-07
5.290394287692683553e-07
3.988084360263791472e-07
6.331648218205075858e-07
2.261255582916207456e-07
6.374831001286731293e-08
1.328813701608439361e-07
1.772870038276650647e-07
1.314596518857192632e-07
9.624205206848991862e-08
1.260383941998238403e-08
2.591161360788289816e-07
1.608395581690177362e-07
4.799479695892902421e-07
3.175009667706774148e-07
1.034147396709262571e-07
6.364529544857869280e-08
-2.540769168962696414e-08
1.884425323461996090e-07
8.283531461770244394e-08
4.639595065238987599e-09
1.520117948644460987e-05
1.528612694438816002e-05
1.473639880641710545e-05
1.471695047861443009e-05
1.481319269885587204e-05
1.466322189830772038e-05
1.461415075442792238e-05
1.519198010589698727e-05
1.524157911171654332e-05
1.480383276202365475e-05
1.491415638136708749e-05
1.490515878908016186e-05
1.505238272967349581e-05
1.503299694092895397e-05
1.510908978625928262e-05
1.504486412573433684e-05
1.468702932853127582e-05
1.457732089611635327e-05
1.448920129792331341e-05
1.512107817831479068e-05
1.474885502888096283e-05
1.488029373744944003e-05
1.498187386317990157e-05
1.459497026822312304e-05
1.445405165682495693e-05
1.433301854484174171e-05
1.495765865417260425e-05
1.466045862437428894e-05
1.478345732723113570e-05
1.446178882908609603e-05
1.428449002324181277e-05
1.412757862177924777e-05
1.473630050165180696e-05
1.448395903992494887e-05
1.428044199983691354e-05
1.405155733381547629e-05
1.385780447349357471e-05
1.443620562906050180e-05
1.410495393629030385e-05
1.374807847243113339e-05
1.350842721635185046e-05
1.402991994226220990e-05
1.373838833980293619e-05
1.339633896672415395e-05
1.308916575116146304e-05
1.347933715721201135e-05
1.291153932100368606e-05
1.255675114068751292e-05
1.273344773265718138e-05
1.222765219145552643e-05
1.185654267394013034e-05
1.188205242282233825e-05
1.142552161789642522e-05
1.100813849360289294e-05
1.080943049552974498e-05
1.037032735946221940e-05
1.086880271034886228e-05
1.000343131749294078e-05
9.710704332290641660e-06
9.383033675816158665e-06
9.054147128678886021e-06
8.583374652523796504e-06
2.957770965251746981e-06
2.878396282407761772e-06
2.901976428036542652e-06
2.809033498185866859e-06
2.803077752474732402e-06
8.135510722825461567e-06
7.865629748889034389e-06
7.571844284872123963e-06
2.706736527723945406e-06
2.744964061578755535e-06
2.813543454751752450e-06
2.911812615393424287e-06
3.025660358983559495e-06
2.690209637636668298e-06
2.577895523226943295e-06
7.041145541809117364e-06
6.744283465153604774e-06
6.636792045098441719e-06
2.636865792148768323e-06
2.733781053719638101e-06
2.803399448591926773e-06
2.951621042682924262e-06
3.102556862048102321e-06
2.999365450658597189e-06
3.203514869076935530e-06
2.158528816708380522e-06
2.238486267798706422e-06
2.191395229946596006e-06
2.320127635222101787e-06
2.433333582650077580e-06
2.464218149910804928e-06
2.266256568114298424e-06
2.327007833004666997e-06
2.186515661609858750e-06
2.246021765653142276e-06
2.549873089529421887e-06
2.407952247442792995e-06
2.060391008367674337e-06
2.099718510734118379e-06
5.792835433849462171e-06
5.745923995485251858e-06
5.208223012648730253e-06
5.300224726122246125e-06
4.738596855044719912e-06
4.869493876030270358e-06
4.278733342179442487e-06
4.379943878321713611e-06
6.041720794316034710e-06
2.633097125807986303e-06
2.806823819301099109e-06
3.071313241769440278e-06
3.336141564992735872e-06
2.860449218679776329e-06
2.113431185841188317e-06
2.397472726447417919e-06
2.185067387563674183e-06
3.171979569885362224e-06
3.508036156779593445e-06
3.811974697947890112e-06
3.976000365584934776e-06
2.292029385171628790e-06
2.184654402430507035e-06
5.091327048230222425e-06
4.147197165509857571e-06
3.611128568852446239e-06
2.593043316139963296e-06
2.794026932879511288e-06
2.282240149282105797e-06
3.463969617581258574e-06
3.714220640444767115e-06
3.287464219158976420e-06
2.975952461110881903e-06
3.160674539193365915e-06
2.413772914849614998e-06
2.592044732852658915e-06
2.833571141091437727e-06
1.324865234969627097e-05
1.327291482220620614e-05
1.334564338423303105e-05
1.327744818537292734e-05
1.336836756603762273e-05
1.316576651210978296e-05
1.317247218024706932e-05
1.304266491154304548e-05
1.304424375195261515e-05
1.318076599855694172e-05
1.333479972186201013e-05
1.324393317858960123e-05
1.289179293421810840e-05
1.287550572641579368e-05
1.304907549682861017e-05
1.292955039540126873e-05
1.309950268206755923e-05
1.320733560259872770e-05
1.271113358583409485e-05
1.265509848590950976e-05
1.245985795699371902e-05
1.254291802747287401e-05
1.276118124422967726e-05
1.289833769383784271e-05
1.303436402130417622e-05
1.225342540128300090e-05
1.234668871958742342e-05
1.253987209162151771e-05
1.262147407388373961e-05
1.279960636214740345e-05
1.202315368775542354e-05
1.187939396595916757e-05
1.226054808976629888e-05
1.248109451741527160e-05
1.159687728425956568e-05
1.141146680992872601e-05
1.176300796367588745e-05
1.125075911981466228e-05
1.204876222856562525e-05
1.103984188621957747e-05
1.154610746834534705e-05
1.123442476432500739e-05
1.097236685522793732e-05
1.063763161529596393e-05
1.092972013675182722e-05
1.069954549121925423e-05
4.639914388678904032e-06
4.581077283376565366e-06
4.580302023774943918e-06
4.489435454535545711e-06
1.020524551667087347e-05
9.919000016958271539e-06
1.044747638877299701e-05
4.635510109012038939e-06
4.987224331267801894e-06
4.847432366530163265e-06
5.180546547361928038e-06
5.022312241420351966e-06
4.439205592671253866e-06
4.555627808741931538e-06
5.408565104634144581e-06
5.209057072866008125e-06
9.504981843111468627e-06
9.244700712304323499e-06
9.933702794836176569e-06
5.097692774152342012e-06
4.675783606130778727e-06
4.859065381233641631e-06
4.513137232873604791e-06
6.455240768941781330e-06
6.534501463323606166e-06
6.829130627014617041e-06
6.240758228572679099e-06
6.262248622661376381e-06
5.345776598459199162e-06
5.697769026990360219e-06
5.622980836162768112e-06
5.955743336917488377e-06
8.764402447598935707e-06
8.605868539818716174e-06
8.037135443490342737e-06
7.994799689245034904e-06
6.758318990347694967e-06
7.404686213153442011e-06
6.273734316214778898e-06
7.373326597953970870e-06
6.273387037645163218e-06
9.029614887057240178e-06
5.052151493127492648e-06
4.749414314081924863e-06
4.613369612596093553e-06
5.877295853762490302e-06
6.031261646717382020e-06
5.272823152491022314e-06
5.497988088537812253e-06
5.917133296624714894e-06
8.193780492942070228e-06
7.406953410549095630e-06
6.653009903461492039e-06
4.934139868908151563e-06
5.513672911879502185e-06
5.184542742710750762e-06
7.839352017578168352e-06
8.027090851377695100e-06
8.196851191609097058e-06
9.847515099750370375e-06
9.465134187280551547e-06
9.093117012242711897e-06
8.730322352637117703e-06
8.375375724092392580e-06
1.788214056203368124e-05
1.788217123023849367e-05
1.799507029661909100e-05
1.796819910773185300e-05
1.810692405657178222e-05
1.806493732947608909e-05
1.821817341811464701e-05
1.816558852421072874e-05
1.833252310632433652e-05
1.828854746714446891e-05
1.845068555237355118e-05
1.776858814126934598e-05
1.770877230878627326e-05
1.820866776258940405e-05
1.841693815143870020e-05
1.857948499835739597e-05
1.701444188234034989e-05
1.702447212662043058e-05
1.715523537582213249e-05
1.728481849965145088e-05
1.709202913135938158e-05
1.686626242571035079e-05
1.689266600449477226e-05
1.658739262548663952e-05
1.662602554714156733e-05
1.675982241348398353e-05
1.676865382973389410e-05
1.760952897713131393e-05
1.765267172945704101e-05
1.748578452342495581e-05
1.753363091399215843e-05
1.735846766923354503e-05
1.741092159267553673e-05
1.722850337954204430e-05
1.646861654207951801e-05
1.649114847463280459e-05
1.632375843869433800e-05
1.635443741060393918e-05
1.874048271060844382e-05
1.845620763681473872e-05
1.868054376171304583e-05
1.890769055565030783e-05
1.883169465599664801e-05
1.904963803677383238e-05
1.620005557715549515e-05
1.621554119250310404e-05
1.548256094106105528e-05
1.548647571174065701e-05
1.563711261189424897e-05
1.488650714592558560e-05
1.485951009334980329e-05
1.502001191829035486e-05
1.504500620769747839e-05
1.517808965921865591e-05
1.518282013100876086e-05
1.533357332565369317e-05
1.530875427227094382e-05
1.327575426651547792e-05
1.327510027859639983e-05
1.343157821813704553e-05
1.346539284485959588e-05
1.358050269011554890e-05
1.467413504116506744e-05
1.469639703564073295e-05
1.603974987645615012e-05
1.607423233370815221e-05
1.561964034723068546e-05
1.578519739984695212e-05
1.593092206361645735e-05
1.574256013676638956e-05
1.588394782413642771e-05
1.314478164088995064e-05
1.310809846465304234e-05
1.357235130307486323e-05
1.373116738615358400e-05
1.433003059191063212e-05
1.436473415406451669e-05
1.453059818392833977e-05
1.451118556050962945e-05
1.301705613606645860e-05
1.292994073942225878e-05
1.372483080876562315e-05
1.388489690028784891e-05
1.404163508876373209e-05
1.387307959888756781e-05
1.402464019416601026e-05
1.420165423353409261e-05
1.418092122271057016e-05
1.255111234018755625e-05
1.253639205850775616e-05
1.274020348726006035e-05
1.236372302690059358e-05
1.231538759409231766e-05
1.160227544171204980e-05
1.157306595306175193e-05
1.182225539801711310e-05
1.182873466113151985e-05
1.207529837523861168e-05
1.202828018723749355e-05
1.136476861297628094e-05
1.132624433370251628e-05
1.112949454674440499e-05
4.801353082582490317e-06
4.731720067354381644e-06
4.932163558495189990e-06
7.068186892727263157e-06
7.116897818857548777e-06
6.855526021237823238e-06
6.795830852253278005e-06
5.069432014159843157e-06
5.153920841090494045e-06
4.596285733213510919e-06
4.549453540150338866e-06
6.584724999822909852e-06
6.517958011729512570e-06
6.353715075081291011e-06
6.231997128206191077e-06
5.242319788283608626e-06
5.399100039705284884e-06
5.763310682888900881e-06
5.668561976237857392e-06
5.947759187915609064e-06
4.429153634912288398e-06
4.370389209415683791e-06
6.039622728873412117e-06
4.250268636026508674e-06
4.190175120979064721e-06
4.008973830901360166e-06
4.061204239054194009e-06
3.643286829593255835e-06
3.826606127655970919e-06
3.696955655262954708e-06
3.872925402705136547e-06
3.458841107344124036e-06
3.516050281067603872e-06
4.820724521690485773e-06
3.335010115131562637e-06
3.273589426343352279e-06
3.147635859769054142e-06
3.088051626510862289e-06
3.687617090137499720e-06
2.997568010217281423e-06
2.902182864678524661e-06
1.801162463407192988e-06
2.768318350927507112e-06
2.716340822675608514e-06
5.218806341786814767e-08
2.620906120086290570e-06
2.530107421813766844e-06
2.466169612916280097e-06
2.343856643253915143e-06
2.202413602171572747e-06
2.157464863965313696e-06
2.043210561051745097e-06
1.971073893478064251e-06
1.865971088476366831e-06
1.786071459054130120e-06
1.690524101301698127e-06
1.603358101224868744e-06
1.422773698931846616e-06
1.496146731801712622e-06
1.244295418977981058e-06
1.309016202870329521e-06
1.130106367808965066e-06
1.068010194530292714e-06
9.620504055607451835e-07
8.937703098931094200e-07
8.172680968746564789e-07
7.216695223639433654e-07
5.502139923860320663e-07
5.868079933470028464e-07
4.292494845959075737e-07
3.787572892342470121e-07
2.622070237112920701e-07
2.072549098898338656e-07
9.329688417680684598e-08
3.589306525502350192e-08
-5.917018400401964667e-08
-1.355293948919751609e-07
-2.215736004019633771e-07
-3.069672304858891333e-07
-3.885236211009254517e-07
-4.786690346216513242e-07
-5.597683771770477576e-07
-6.505035399618874201e-07
-7.334462903352179824e-07
-8.224726041123245115e-07
-2.865985628727788627e-06
-3.042185515848420747e-06
-2.808096784757694304e-06
-9.113352096684633585e-07
-9.946091225877744016e-07
-2.657317025020992212e-06
-2.533666987361698929e-06
-2.376802790195598553e-06
-2.270281690723770556e-06
-1.166739149488830139e-06
-1.080485024329963337e-06
-1.221744312950168848e-06
-1.338986073994295551e-06
-2.056853327746637040e-06
-2.179633059659117016e-06
-1.450420173212080883e-06
-1.511095928255733935e-06
-1.938433498677610381e-06
-1.863367990986606987e-06
-1.737419786915779062e-06
-1.683274009041688945e-06
-1.594493705706425557e-06
1.778445544421004669e-05
1.824060308442640747e-05
1.832877716768316557e-05
1.827497451134463475e-05
1.770653119532277078e-05
1.763531899045761380e-05
1.820720905994340568e-05
1.832268825603097228e-05
1.819743385955029501e-05
1.829541071435441288e-05
1.692367582062755932e-05
1.667224749272909221e-05
1.757626607921514473e-05
1.706076822316503655e-05
1.755306856366084845e-05
1.809168794101200428e-05
1.820627914578650113e-05
1.830111038053226953e-05
1.691057565876715428e-05
1.695467752188339495e-05
1.699303422613223459e-05
1.746425288295276531e-05
1.748405326545834923e-05
1.729648784902678888e-05
1.717039770010425333e-05
1.695522129624442412e-05
1.702076184252570678e-05
1.695801531736949999e-05
1.743488467270669994e-05
1.624922328235241882e-05
1.616788433326677097e-05
1.538314806764160811e-05
1.798665155831327421e-05
1.887406824031079782e-05
1.815647229211429567e-05
1.839118788448800096e-05
1.864627262990294413e-05
1.799860840215617564e-05
1.690299027690347295e-05
1.733308360953125679e-05
1.717870350665909345e-05
1.707628229417890842e-05
1.693953006100772904e-05
1.687598170000510758e-05
1.689895493853008266e-05
1.730927213682366856e-05
1.536252154605038904e-05
1.539699982741037098e-05
1.480339951942423567e-05
1.473810981275327825e-05
1.493586606870560445e-05
1.335779713087810614e-05
1.344312556948913441e-05
1.465767066620932764e-05
1.617893545894345822e-05
1.610485455962784091e-05
1.605009890515314485e-05
1.604340985916467916e-05
1.549221582213217916e-05
1.783732119224469521e-05
1.865846241186638963e-05
1.814519133822950787e-05
1.836083417771882713e-05
1.789481164011307132e-05
1.702177498661354738e-05
1.715295797511309970e-05
1.690962803451347360e-05
1.687723462272418731e-05
1.682097531779264889e-05
1.677756075508097226e-05
1.713629412441247795e-05
1.536148172892877164e-05
1.542331933816416245e-05
1.532834941981037343e-05
1.540501399610615636e-05
1.347810232946456205e-05
1.344078255464045448e-05
1.454592456054729010e-05
1.601678776665816365e-05
1.592306169032983951e-05
1.585022919309673773e-05
1.553416433240938549e-05
1.569032338003368231e-05
1.541694849753291903e-05
1.532369496996891441e-05
1.765741657248367879e-05
1.838786218565033337e-05
1.801745251300317709e-05
1.771556495715583129e-05
1.693603921509991917e-05
1.676913656659538874e-05
1.673339114546731074e-05
1.665362651731888466e-05
1.693606672215162962e-05
1.522240681686048329e-05
1.358326450264293466e-05
1.348862854501186567e-05
1.340030082087755690e-05
1.417528240230878835e-05
1.427495868576224798e-05
1.437758194569539313e-05
1.586633322401146740e-05
1.570191951358694335e-05
1.564039888397327863e-05
1.549043514706368891e-05
1.534916895476113636e-05
1.522817738962020195e-05
1.743566008170357534e-05
1.804825951716559416e-05
1.759863544716140540e-05
1.672265095865122368e-05
1.657559470941917493e-05
1.650622434749574800e-05
1.667826802839378616e-05
1.508847751070429729e-05
1.328886833377430855e-05
1.371216189356107581e-05
1.357471170457439159e-05
1.347862316315065949e-05
1.337110190453907368e-05
1.383558155269007026e-05
1.401480693483420718e-05
1.406954273583906602e-05
1.418569130243178646e-05
1.563159773135880729e-05
1.542266803414167858e-05
1.528684465108166434e-05
1.511503864756370236e-05
1.718924369062589677e-05
1.762177725632973222e-05
1.710839219545755717e-05
1.644036383595389670e-05
1.631097119589191807e-05
1.633481019682234109e-05
1.492204452087648444e-05
1.326308058629939459e-05
1.315631697746263648e-05
1.360739322049284772e-05
1.341146252965721134e-05
1.328817708738773155e-05
1.379048184995261820e-05
1.393955750466945029e-05
1.533453237768314596e-05
1.506501462870166080e-05
1.708635578448937256e-05
1.663547316680392117e-05
1.602065216776901317e-05
1.593538410558203972e-05
1.472295982796908401e-05
1.312584450193087665e-05
1.295543169550305029e-05
1.344565174610496850e-05
1.319517373613084702e-05
1.362508737531933041e-05
1.138147530837219814e-05
1.162561521671679173e-05
1.498253272152018127e-05
1.476070994993083539e-05
1.641438782411191148e-05
1.617529320542644697e-05
1.552747537714064212e-05
1.552406060299014442e-05
1.444108255736588926e-05
1.295636299478197443e-05
1.266326269395943045e-05
1.321714963579630986e-05
1.052542626625815472e-05
1.089979235250336248e-05
1.068885365278987121e-05
1.115662411815779935e-05
1.095731750490759079e-05
1.124715610096538978e-05
1.459214016252641341e-05
1.543184143209601854e-05
1.557069633501298141e-05
1.033016792189689163e-05
7.331607931575070470e-06
7.480859099800254488e-06
7.660193112005317194e-06
7.840448279082202685e-06
8.020087752216057905e-06
8.198408088031637365e-06
1.504141340265338492e-05
1.411077816025843403e-05
1.228904550513196413e-05
1.270042490375601651e-05
1.049354528447813309e-05
1.073149727011495690e-05
1.024848303152960075e-05
1.086790523666595562e-05
1.177924480265110355e-05
1.377797833943911664e-05
1.470793433569941963e-05
1.451150801883570215e-05
4.705922645272212674e-06
4.917468978164922237e-06
9.961642647560648418e-06
9.505825445825367943e-06
9.082542653129417636e-06
8.759541073358106863e-06
7.206709262165902308e-06
7.639942409113252014e-06
7.473971282098775630e-06
8.367785537416814860e-06
7.813409839712939401e-06
8.062847184200687696e-06
1.434343262996832326e-05
1.330898796431499962e-05
1.206112732570131315e-05
1.042720596282890995e-05
1.003038443394972161e-05
1.132130408381827620e-05
1.136113762940422485e-05
1.293950922486659343e-05
1.363515422117008948e-05
1.320068676039524497e-05
4.503962824955515235e-06
6.895823317420644071e-06
6.657865303086635644e-06
9.620932799545693929e-06
9.057429671057359846e-06
6.919894419067890322e-06
8.534788635465522075e-06
7.402122117454691846e-06
7.914639033354973750e-06
1.347849157560874250e-05
1.081944185835353135e-05
1.067651344941832009e-05
1.236381557872753912e-05
1.259927022766020067e-05
1.169902977299541716e-05
1.045614320216231306e-05
1.017426518926652482e-05
8.705534725998338854e-06
8.718016407581582263e-06
6.905103453006355179e-06
7.537437833514333178e-06
6.328659305292860099e-06
7.593302486101027014e-06
6.469272065218766414e-06
4.421686390606345489e-06
4.373914373957609819e-06
6.570280409431090632e-06
6.327500113533949950e-06
1.019455566242584928e-05
1.007276857132773649e-05
1.157990388375753003e-05
1.170877256756037470e-05
6.347543393188525784e-06
5.524328886298579701e-06
5.662451083471745791e-06
4.311811447165672521e-06
4.307936329090785672e-06
4.272323970599860341e-06
4.372290007438988705e-06
4.254683166489513286e-06
9.412258513238573853e-06
1.009038816656749221e-05
1.051643832111424972e-05
4.721215023826751350e-06
3.942791067558853349e-06
3.332143541670619819e-06
4.142125356700717941e-06
4.169214818680579117e-06
4.154458274067417719e-06
4.201528426021447633e-06
4.302989804430966972e-06
4.434354763419498750e-06
3.583490691653009761e-06
3.228787146362432765e-06
6.106299662106742381e-06
5.883305924829050394e-06
8.834123633381744527e-06
8.361161031961321702e-06
8.105046852672797875e-06
9.044508373360860768e-06
2.693056537199071682e-06
2.824872381407472317e-06
2.320129257921304782e-06
3.096542644460453061e-06
3.019450776858790411e-06
3.389067505433503470e-06
3.199985381029882557e-06
3.923613535933012382e-06
3.739136088041351255e-06
4.020244999195253304e-06
4.032485160854718387e-06
4.100351889606997385e-06
4.195192143921007788e-06
4.298648338296627154e-06
4.644220566666878992e-06
4.518137468588115262e-06
3.556773318425264290e-06
5.482616417631137353e-06
2.876904155711583350e-06
7.418088263397607913e-06
6.536850773120592171e-06
5.781830469193484083e-06
5.501818156699256823e-06
7.464307550773814057e-06
6.689729317054774259e-06
7.290990895928265794e-06
5.981270261864741260e-06
1.760759533616127318e-06
3.320711026605541528e-06
3.804188666285700089e-06
3.946350825517204087e-06
4.690966170100040898e-06
4.469546985826430372e-06
4.071897345739068365e-06
4.281648640880879595e-06
3.490393390012334942e-06
4.974163193445869199e-06
5.077014815340049749e-06
5.950522878004055819e-06
6.220595397793549939e-06
5.169021249942969888e-06
5.905794017222574912e-06
1.088433955704644657e-06
1.180975885421609465e-06
4.275101980404835091e-06
4.453633667531450770e-06
3.721122254839081725e-06
4.243609524133873286e-06