<?xml version="1.0" encoding="UTF-8"?>
<VTKFile type="UnstructuredGrid" version="0.1" byte_order="LittleEndian">
<UnstructuredGrid>
<Piece NumberOfPoints="4497" NumberOfCells="8293">
<PointData>
<DataArray type="Float64" Name="Current_density_norm_@_t" Format="ascii">
5.980526297501082833e-07
-7.679000880877572610e-07
3.594386949628707066e-07
1.864173226468371896e-06
1.208896306291019900e-06
2.094547437496159758e-06
2.972924380762227878e-06
2.599873375824806340e-06
4.009589079708776412e-06
-1.961088368086682707e-06
-1.942982212953360281e-06
-2.032265237435825563e-06
-3.525825956743681278e-07
-3.261591479665362528e-07
-4.178411024839902472e-07
1.367396172991056407e-06
1.405691912777175847e-06
1.297939071047971558e-06
1.033179951619881415e-05
1.042189968703778480e-05
1.032728897141355464e-05
8.071815594957089610e-06
8.048984115053576117e-06
8.241787108858118752e-06
7.920794645416280686e-06
7.864857158527430997e-06
5.804412238729906494e-06
5.896348802786572142e-06
5.730539615696229578e-06
5.676247773158467520e-06
5.523014937178414544e-06
5.933157412024798048e-06
6.074273651728947070e-06
6.346827256799810577e-06
6.521031546174502119e-06
6.289355259529434442e-06
6.564184206519155246e-06
6.751631211588136169e-06
6.829403587888032502e-06
6.979903207429766901e-06
7.040127249322174702e-06
7.203596774962518579e-06
8.247798195339453914e-06
8.398898165735363698e-06
7.230106544825268910e-06
7.422553397437747604e-06
7.468111981584582185e-06
7.642208699355341092e-06
7.664279699643689755e-06
8.405638972816239021e-06
8.593908481925342579e-06
6.088936996098465254e-06
-5.522934212209201153e-07
6.087605651621181798e-07
-2.883327031151008717e-07
1.817271014322652047e-06
0.000000000000000000e+00
1.480654863004891958e-06
2.836156747943338011e-06
-1.583402093827248613e-06
-1.524776674500800691e-06
-1.612229043781666568e-06
-1.532674058868779117e-06
-2.010135233311078612e-06
-2.088902627091875888e-06
-1.456699532955787277e-06
-1.655788345249280801e-06
-1.706710931514657275e-06
-1.591805538875977888e-06
-1.506344639845726102e-06
-2.027233131778541708e-06
-1.760772386506686357e-06
-1.824735856010316142e-06
-1.875538012554234317e-06
-1.944328268276678029e-06
-2.103887689054132191e-06
-1.424119436101430755e-06
-1.493987576948141835e-06
-1.683015246557540226e-06
-1.592567556249636122e-06
-2.010515954817772744e-06
-1.813960085430354428e-06
-1.912027013863716234e-06
-1.563398098087694823e-06
-2.081116611530111843e-06
-1.399216555292127372e-06
-1.478696407891020337e-06
-1.682343463429647911e-06
-1.963147558957503655e-06
-1.832793747064930928e-06
-1.585829763092232353e-06
-2.051052442158729531e-06
-1.367737608755444647e-06
-1.461155266376869333e-06
-1.729711018099979199e-06
-1.895133770578457614e-06
-1.598397446705609857e-06
-2.010940067085682740e-06
-1.326812628354849430e-06
-1.431105137388364656e-06
-1.783298453084649654e-06
-1.566808115667289039e-06
-1.957654868955493915e-06
-1.273535365795173384e-06
-1.420280719458314093e-06
-1.656379175336116528e-06
-1.886534618209927443e-06
-1.204440380707728432e-06
-1.382900729342521833e-06
-1.518590103730054677e-06
-1.791852398952517412e-06
-1.114595745318002015e-06
-1.407168752031164029e-06
-1.665723415214961625e-06
-9.978791161244412718e-07
-1.251320152351928246e-06
-1.497855376664730707e-06
-8.461029857312769628e-07
-1.066631084043788828e-06
-1.280292898277768059e-06
-8.754196464624685803e-07
-6.488260698871340824e-07
-3.970995199004244294e-07
-1.024755176309078031e-06
-7.550583648176552315e-07
-1.097844839010058112e-07
1.974137070704289559e-07
-4.709895516978129760e-07
3.961871059722843805e-07
-1.471885001875545298e-07
6.546035026819536868e-07
7.942092337084400264e-07
3.431067208656113112e-07
1.157524201801623455e-06
7.018586853183157828e-07
1.022567110458083123e-06
1.375839146134057300e-06
1.545422757934745035e-06
1.330955586318465837e-06
1.150374225901886401e-06
2.474716928528612716e-06
1.900255232197630851e-06
2.485492880046913947e-06
1.912612943686432278e-06
1.817398634494201455e-06
2.069738876604215973e-06
2.019052424769123779e-06
2.769862136050410552e-06
2.960834786575949655e-06
3.153347577163859849e-06
2.622030745879377413e-06
2.630997165918671262e-06
3.135460719958010576e-06
3.353274982140022410e-06
3.644526688843242304e-06
3.999117772731636623e-06
3.355467269868150811e-06
3.601093535305607025e-06
4.007792356623870040e-06
4.258063107149611477e-06
4.596524077711364468e-06
4.184201379018216845e-06
4.640216673483837797e-06
4.777004504660827570e-06
5.217787667063144281e-06
5.207150177561914766e-06
5.407206625516987701e-06
6.136168026000577319e-06
6.350430233710786096e-06
6.611116056580142939e-06
7.334699943303352732e-06
7.786748124319800676e-06
7.391427521413289676e-06
8.558418749934023460e-06
8.870693074038704865e-06
9.710809279672511700e-06
9.839516484639692474e-06
9.582463697317384168e-06
1.055408997408430576e-05
1.074574431274459628e-05
1.163384209234730989e-05
1.153969209826145509e-05
1.202750961071360531e-05
1.216178532375517094e-05
1.147538529059874310e-05
1.225928868445662839e-05
1.249362108037837759e-05
1.264042479270868310e-05
1.324930091820241258e-05
1.329218953760293587e-05
1.300877345247163018e-05
1.286464470311669879e-05
1.300801001402661200e-05
1.339853614851296905e-05
1.350642561862804142e-05
1.351025669362298805e-05
1.331928114142711021e-05
1.366040752715854042e-05
1.367732112653882400e-05
1.369065148170721886e-05
1.372688683144298130e-05
1.367794563665433369e-05
1.380365484637228069e-05
1.391661211117504050e-05
1.383478580037753638e-05
1.391120093550152355e-05
1.380699919258057643e-05
1.392758265292600059e-05
1.390298159732456838e-05
1.410893272930320663e-05
1.398743358040990418e-05
1.410806344078337251e-05
1.403840583818300944e-05
1.390639587088320889e-05
1.400034727859087346e-05
1.397746555440181442e-05
1.425334802673183722e-05
1.424145520496282623e-05
1.414683015020682947e-05
1.426840528703948006e-05
1.409482460197277151e-05
1.414316590981598439e-05
1.398520599670498520e-05
1.406109743811842893e-05
1.403904527809211811e-05
1.436168456806527320e-05
1.435014321769593880e-05
1.435611527331683129e-05
1.413829591464349942e-05
1.424765245802559659e-05
1.418755511317866850e-05
1.406522122353937368e-05
1.410404254025039112e-05
1.444368843028077114e-05
1.441464959618462093e-05
1.416917516241957196e-05
1.443214835789235708e-05
1.441934900599072017e-05
1.436062621854102304e-05
1.422141412304664229e-05
1.428297414046172283e-05
1.415386869228493305e-05
1.449178613568217672e-05
1.422849067120572647e-05
1.449609026296909256e-05
1.445556967827615693e-05
1.438353893066108888e-05
1.430047383357964071e-05
7.280576464243776480e-08
1.307705488756024967e-07
3.044006682878788516e-08
-4.033913353671767519e-07
-4.800941523585751256e-07
-4.286935605260575998e-07
-2.951511554197083195e-08
-8.189447641656136517e-08
-2.676859270655504824e-07
-2.084894895130928369e-07
-1.468667802700438546e-07
2.615795759525379788e-08
1.708563386028072361e-07
1.080122361092973038e-07
-5.023412533406146883e-07
-3.486557245691964527e-07
-4.202488577851863112e-07
-7.801148044698189720e-08
-2.266109574499560971e-07
3.139747886336267046e-08
2.125848348332222082e-07
1.384850010671253917e-07
-4.689452565760574959e-07
-5.319951275812636059e-08
-3.420952118830769171e-07
-1.733875158701540133e-07
4.175581438813609974e-08
2.556046936866799915e-07
1.718666819961765438e-07
-4.237540243589015760e-07
-8.723238611560913856e-08
-2.527123504561147938e-07
4.028377790926379977e-08
3.129859102048643800e-07
2.054521950317521930e-07
-3.629985878760622661e-07
-1.263168948347116269e-07
6.994291519173426121e-08
3.892015938074373061e-07
2.247670360920600027e-07
-2.809187665897795391e-07
-9.458777996205127857e-09
2.283353429286349195e-07
4.906157769930288815e-07
-1.700559044072885863e-07
2.092173707667788573e-07
6.255613346670605942e-07
-2.046973694043989516e-08
4.006333203843951793e-07
8.051647757781083426e-07
5.921334640040666728e-07
1.814651170643688576e-07
6.888518366201827741e-07
1.042463490290617096e-06
8.612833497686766483e-07
4.538913579009913769e-07
1.356639273720266327e-06
1.055603844120458750e-06
8.169918519974458319e-07
1.789226961023691964e-06
1.541540659857355506e-06
1.280874400239342904e-06
2.279010582111465053e-06
2.193847935769976660e-06
1.777743543233988216e-06
2.679831680554011523e-06
3.112514006976919139e-06
3.183622502172030690e-06
2.607834262108261638e-06
3.452390050068858149e-06
3.927709458126238299e-06
3.404511835629940967e-06
4.138296046922340207e-06
4.777420261183327477e-06
4.232846862908935280e-06
4.933577335892281577e-06
5.714983497785444420e-06
5.156218905973408717e-06
5.634260627183613873e-06
6.198978167757257156e-06
6.810261106491053784e-06
6.260053607845142744e-06
6.858909294306368991e-06
7.696595400735241083e-06
8.173208845890850546e-06
9.142234466790212906e-06
9.149800108310814520e-06
7.689453758362234484e-06
8.756723429158095863e-06
9.878436998869176826e-06
1.001226062393567647e-05
1.047421016037608605e-05
1.078163264574245993e-05
9.752853396163656263e-06
1.091040890383167664e-05
1.125968691903592991e-05
1.136264608876767502e-05
1.279330451321338596e-05
1.281402818579085572e-05
1.270832724967884355e-05
1.287291590794585398e-05
1.073914904441133936e-05
1.147941616800757326e-05
1.167361886566740993e-05
1.180230976645665126e-05
1.268316920004009096e-05
1.256792180504865081e-05
1.254526306393372373e-05
1.238116818155798531e-05
1.280603374156529642e-05
1.288445594997308016e-05
1.293242129838211183e-05
1.293305440055284874e-05
1.289239354129443943e-05
1.293011349717647024e-05
1.237129083384200044e-05
1.213280402029367043e-05
1.216259852854555442e-05
1.207501753692181885e-05
1.202799130934207298e-05
1.270012863445096465e-05
1.256733505876452670e-05
1.286532823552043517e-05
1.303384348712516133e-05
1.298005756048177268e-05
1.303493411695625023e-05
1.299797415959885808e-05
1.296776574478006737e-05
1.243917336207361901e-05
1.243426667450709716e-05
1.274297826594724377e-05
1.297644579361039096e-05
1.313519906791169813e-05
1.317763853125887948e-05
1.311889361322480625e-05
1.306879520416898317e-05
1.314170291895277198e-05
1.306307980567969379e-05
1.273543183122732927e-05
1.312381550965047203e-05
1.295854812522151318e-05
1.324798841838954723e-05
1.325394415514697847e-05
1.323344242323793627e-05
1.324635705055021627e-05
1.322067157893297156e-05
1.329328510469459796e-05
1.315443071058014178e-05
1.325133961754477062e-05
1.330852418815245387e-05
1.330179520313353890e-05
1.333711306580373180e-05
1.332862533558691322e-05
1.337558116471732273e-05
1.337877470680991603e-05
1.298567848872686177e-06
1.230255105142641180e-06
1.818117979606956392e-06
1.884569693456265088e-06
1.803187252386712759e-06
1.865629444637383881e-06
1.931880305599292863e-06
1.264821877734818657e-06
1.200286768911955096e-06
1.737620372212907545e-06
1.697311121778304521e-06
1.614783215440149633e-06
1.552299070425703259e-06
1.486731077539859481e-06
1.329570559914947602e-06
1.407124443548363505e-06
1.800824936953037016e-06
1.893059828401650421e-06
1.989509671476153010e-06
1.245952817377192941e-06
1.689809185174776008e-06
1.521756567447759486e-06
1.382637578781420770e-06
1.798151079914106192e-06
1.925703811637638355e-06
2.055241766164329818e-06
1.307649681891754693e-06
1.657299047078335124e-06
1.483843890037544584e-06
1.808099822971481662e-06
1.972527496244291043e-06
2.141319228149783395e-06
1.391271486629959401e-06
1.642202930541339142e-06
1.865343339087747043e-06
2.036379937285041897e-06
2.254577323173097522e-06
1.504373362077313022e-06
1.820849146549815626e-06
2.133475998186845679e-06
2.401413858954714208e-06
1.657904504683280378e-06
1.968812118150076258e-06
2.214662123090425087e-06
2.577308938124662816e-06
1.865761505511273751e-06
2.375944880913535780e-06
2.800858103254496028e-06
2.147417734694059783e-06
2.677643243859864489e-06
3.142247655862322666e-06
2.530075354922324742e-06
3.069228693312117227e-06
3.555796483830908786e-06
3.442755884018752406e-06
3.916782495410228276e-06
2.985531163279366405e-06
3.846807033507170034e-06
4.290097735698741781e-06
3.779022218213689544e-06
4.353519833166805522e-06
5.031081088135493083e-06
1.153668526366363467e-05
1.157347387145703696e-05
1.162001557060162555e-05
1.163683623096161410e-05
1.169938891147118608e-05
4.570665856647228828e-06
5.152958608529981983e-06
5.803676697845246213e-06
1.170177454343915695e-05
1.163195835982476446e-05
1.157389620420049910e-05
1.149983580304028569e-05
1.143533060251864787e-05
1.177258028527372389e-05
1.178328240242380004e-05
5.396887598365382971e-06
6.080360129208096458e-06
6.634931349893657768e-06
1.167701808680517759e-05
1.159601770809974733e-05
1.150540933565716254e-05
1.139980937155573906e-05
1.130886704381792322e-05
1.126912051728085751e-05
1.114266686016171692e-05
1.202815111836488932e-05
1.198217129012144341e-05
1.195922339481099650e-05
1.189679638821103592e-05
1.187362667244537956e-05
1.176023443641984252e-05
1.185212569487247848e-05
1.195328912610621043e-05
1.204063669289871729e-05
1.201735746207035412e-05
1.186360692403161585e-05
1.195561810779185306e-05
1.206133613989356719e-05
1.209564418788389853e-05
7.048071265319680998e-06
7.557163298444285610e-06
7.801271322312263890e-06
8.094400352311492515e-06
8.449154220232307983e-06
8.614124821152328257e-06
8.967356514777605379e-06
9.302699275556093128e-06
6.295934180648847612e-06
1.158467341790064234e-05
1.141199689117525367e-05
1.108270824731759305e-05
1.092425256396520732e-05
1.126872483115654288e-05
1.196403781960605144e-05
1.168791861845736214e-05
1.183197822647987378e-05
1.085083477936372653e-05
1.064142433702918702e-05
9.613951111230105803e-06
9.871186196503406863e-06
1.203089414498127011e-05
1.208465285507751566e-05
7.315340041000837670e-06
8.523934764676299202e-06
9.345144416403312911e-06
1.144428012221063883e-05
1.114993274361767214e-05
1.165318611458126609e-05
1.016886163178679663e-05
1.030219667705069739e-05
1.055298501010336434e-05
1.084458871386990827e-05
1.003514074402280155e-05
1.141084122728581414e-05
1.108255340283612967e-05
1.063779748708609319e-05
3.318375646373795879e-06
3.347790130270516844e-06
3.259223520098322573e-06
3.266026662812228461e-06
3.185714892726038600e-06
3.391549427670792805e-06
3.443713945807488189e-06
3.495018887407727784e-06
3.565941582659169816e-06
3.327377854704557802e-06
3.146776876391825227e-06
3.239607058976187953e-06
3.619342445468838597e-06
3.727020183641589453e-06
3.424324139037368532e-06
3.526460068119432938e-06
3.323906518573732458e-06
3.209231086560791735e-06
3.768734972194578114e-06
3.937170268044993023e-06
4.054715387089159882e-06
3.905754780480336945e-06
3.627182726738553432e-06
3.452157090226079601e-06
3.293976949593955870e-06
4.178677994039139608e-06
3.990579063831263238e-06
3.795510298157793979e-06
3.609060130626143583e-06
3.408917173424747236e-06
4.155654458880985042e-06
4.388806960148123259e-06
3.856748455557005447e-06
3.564904726407904753e-06
4.390966302341757382e-06
4.651923612386507892e-06
4.104205428889251843e-06
4.626073212032173147e-06
3.776466343916320411e-06
4.879114090504981224e-06
4.052724863676991349e-06
4.438810917275276674e-06
4.768501030995674406e-06
5.124946312398368189e-06
4.391334548312378295e-06
4.773965920680078084e-06
1.041001892644721869e-05
1.048130734040105048e-05
1.043402423193389860e-05
1.050198790783209114e-05
5.133035713939911040e-06
5.603288176957179931e-06
4.688431473997086533e-06
1.037595201359028005e-05
1.020835385959612313e-05
1.021892486323659302e-05
1.007071480803199278e-05
1.008742374594433271e-05
1.047666113533853720e-05
1.040092623240403820e-05
9.908294095612191300e-06
9.955495774340785851e-06
5.623112182485037256e-06
6.091951015450153273e-06
5.005068120410305433e-06
9.947510940273998566e-06
1.028722872632640898e-05
1.009071748364630711e-05
1.037317970530013048e-05
8.433901893542791240e-06
8.591310794438539658e-06
8.262988812164328615e-06
8.736448907192091370e-06
8.894669479700216384e-06
9.755473927949739923e-06
9.580585590962832350e-06
9.416483675481565906e-06
9.267057833408956402e-06
6.166927543796628399e-06
6.596238295976358096e-06
6.763405250545399961e-06
7.121821604428229535e-06
7.994737914306822415e-06
7.675001354067616772e-06
8.354940262536575871e-06
7.379742550674141053e-06
8.127812431853010687e-06
5.630567711072736633e-06
9.848312109301590310e-06
1.004208063540925171e-05
1.023267653278799505e-05
9.047585683325593792e-06
8.717941137656976157e-06
9.598528483330253665e-06
9.315773946738251852e-06
8.521499551449018332e-06
6.280401341400967328e-06
6.967753840161444341e-06
7.708337866924726506e-06
9.783571003073778869e-06
9.023298679674076912e-06
9.432525492517193703e-06
8.096730096167477716e-06
7.913824199919712344e-06
7.756030321485246675e-06
6.377366265571121329e-06
6.670606387509397684e-06
6.969694301807761033e-06
7.275889950939413162e-06
7.590178256120852632e-06
-1.572649302567673328e-06
-1.479694365043637644e-06
-1.617997667911850996e-06
-1.677190234675839701e-06
-1.756366137696911723e-06
-1.797433793251801736e-06
-1.895168888527838625e-06
-1.924257231288374816e-06
-2.038577270863784060e-06
-2.089215876742862968e-06
-2.188077371696858699e-06
-1.341072353575235893e-06
-1.389466919698963072e-06
-2.008769152815484413e-06
-2.271027947384399425e-06
-2.352557953462169528e-06
-5.422849020067156513e-07
-4.586250778709501471e-07
-6.108444048774226598e-07
-7.625821202208710978e-07
-6.617262258487165323e-07
-3.686042029859149587e-07
-3.063719252091246572e-07
-4.665543557106805752e-08
-1.813718876806712872e-09
-1.541306883987190269e-07
-2.532139639647877901e-07
-1.261952607022660330e-06
-1.201087011579106077e-06
-1.122214808812833528e-06
-1.057900632144136453e-06
-9.689628862703981185e-07
-9.118850233497298387e-07
-8.138445508016054866e-07
8.278458657755880212e-08
1.504983401314222353e-07
2.227023549043612670e-07
3.037586842687305255e-07
-2.560805787131803445e-06
-2.404555084135811504e-06
-2.646492927384410927e-06
-2.779444456931476550e-06
-2.819566809081680506e-06
-2.967006484021453592e-06
3.710063231271808199e-07
4.583492582815250384e-07
1.145573728732382886e-06
1.250838757948398902e-06
1.089772580070386094e-06
1.811775378492814360e-06
1.909806114401950868e-06
1.742935266499680507e-06
1.632360519953958433e-06
1.577590531829061026e-06
1.490036046998954048e-06
1.413569923933119192e-06
1.351711665287147110e-06
3.413349037539293916e-06
3.492259669661693379e-06
3.340612827258064560e-06
3.231324056986449384e-06
3.195693947437539867e-06
2.021302101090089073e-06
2.078016960952070068e-06
5.291507256318703060e-07
6.140780298606307914e-07
9.940136656471230590e-07
9.299505658179667178e-07
7.714171047622688101e-07
8.466390271262399711e-07
6.874322988363726472e-07
3.537060355075726287e-06
3.652668686648485779e-06
3.102165080406196434e-06
3.047978775361986369e-06
2.341229217400363807e-06
2.416403169384638740e-06
2.247550658806066023e-06
2.161016718304319473e-06
3.662479865835713408e-06
3.822387056990797816e-06
2.949638799940848118e-06
2.896293412343421824e-06
2.740437351744884711e-06
2.791018523481996902e-06
2.639384965241523053e-06
2.580597401917517638e-06
2.487582766696040926e-06
4.084018415065629574e-06
4.193500441161126811e-06
4.002318868336610084e-06
4.232158071054337114e-06
4.399317752869395868e-06
4.922934275821611629e-06
5.076894452982512728e-06
4.851879185088518610e-06
4.724716374426744675e-06
4.620549521542911295e-06
4.459660828275004114e-06
5.132779211695966617e-06
5.297947799655612805e-06
5.328713325904921998e-06
1.039547113884859144e-05
1.051489227983629041e-05
1.037385432666037359e-05
8.806377529476618865e-06
8.618575934951073263e-06
8.828002625427040664e-06
9.012904096146517392e-06
1.020982498429728999e-05
1.021667973131102733e-05
1.053701981534628450e-05
1.064223369494902670e-05
9.038748820366107145e-06
9.221597409328514277e-06
9.234299034774388364e-06
9.434140931209517359e-06
1.008940296924814210e-05
1.004130815951508789e-05
9.676018131701459324e-06
9.846656897484975406e-06
9.643383311232932357e-06
1.064269074717117623e-05
1.076666766727331413e-05
9.415486394032610221e-06
1.076784910214563046e-05
1.089093824685445573e-05
1.101521567590343540e-05
1.089106142184771516e-05
1.126335616688576950e-05
1.113928435803141775e-05
1.113809731020825905e-05
1.101489440376382669e-05
1.138721964431983679e-05
1.126064345930030496e-05
1.883126616218895133e-07
1.138544455245514057e-05
1.151096825766596349e-05
1.150853340111977760e-05
1.163405763257455745e-05
1.318581443266106927e-06
1.162221792354595020e-05
1.175629189355687897e-05
2.868145536774285652e-06
1.177862479314129253e-05
1.187801455765567275e-05
4.213231566186044968e-06
1.187389445415924763e-05
1.199879277532495990e-05
1.197549093201622712e-05
1.211895424549130481e-05
1.213359081739374602e-05
1.223838926652866738e-05
1.223441252647665089e-05
1.235707498668614870e-05
1.234543019962892912e-05
1.247381890378144927e-05
1.244605314408469949e-05
1.258848835871058288e-05
1.270097704741223854e-05
1.256223822564796818e-05
1.281134514369132671e-05
1.268792345229074580e-05
1.281585059573922261e-05
1.291970042253822103e-05
1.291937925297807492e-05
1.302595644092319714e-05
1.300726708955187702e-05
1.313032146914453531e-05
1.323350054966396350e-05
1.314773784398603495e-05
1.324452567113857845e-05
1.333603443198901086e-05
1.334400374178052262e-05
1.343785215873635031e-05
1.343575719897890510e-05
1.353914325140143007e-05
1.353125584651249185e-05
1.363968324900738586e-05
1.361953945051477534e-05
1.373949078609154790e-05
1.371023784750036968e-05
1.383856930926474978e-05
1.379977528774536213e-05
1.393709525484939011e-05
1.390212026046892810e-05
1.403507836167637725e-05
1.505688803324530487e-05
1.523643295708626728e-05
1.511525406189235180e-05
1.400807409728354442e-05
1.413242394118443710e-05
1.492736745574773930e-05
1.497157228588666826e-05
1.476366915550979844e-05
1.483206213357683072e-05
1.422923823991093520e-05
1.409751762146887635e-05
1.419161171999062075e-05
1.432513366255722465e-05
1.471763102857880792e-05
1.468960304410900082e-05
1.432317707709481697e-05
1.442035651067412899e-05
1.458984652982509836e-05
1.461306966889180752e-05
1.448306125343954089e-05
1.451488522865209163e-05
1.440157677349541244e-05
-1.484459736771976922e-06
-2.110410697802569114e-06
-2.165158700988554090e-06
-2.175870353871297183e-06
-1.451714766028271840e-06
-1.394191336975380509e-06
-2.167671933962991921e-06
-2.256527901253220294e-06
-2.214210655345548063e-06
-2.299630726796735117e-06
-4.562080869451420989e-07
-1.556085068439946222e-07
-1.314889580717523094e-06
-7.274535134142165322e-07
-1.365935539890522350e-06
-2.197231923786382612e-06
-2.272493286528381956e-06
-2.362613092068984584e-06
-4.907544255129095596e-07
-5.628626322347163411e-07
-6.363113704048670364e-07
-1.203141071935361523e-06
-1.287833374938718250e-06
-1.044358302592005988e-06
-8.682615857356215387e-07
-6.502628758547194013e-07
-7.807147550238323816e-07
-6.944676868015250114e-07
-1.320799342150455568e-06
2.143549100453384250e-07
3.062247347253014670e-07
1.252869968053074037e-06
-2.182909885535304557e-06
-2.939702594565717085e-06
-2.324377976114932924e-06
-2.512020884910097721e-06
-2.765429014889916774e-06
-2.281667049594043593e-06
-5.787193127246398916e-07
-1.187900754987616777e-06
-1.048053170745717142e-06
-9.029721815342392065e-07
-7.802050513700673880e-07
-6.195547582960934564e-07
-6.981859536738211855e-07
-1.269971964315386855e-06
1.217902111200816637e-06
1.156668988752585414e-06
1.864843105390085250e-06
1.931441063139846232e-06
1.737595316046302683e-06
3.318645894239137428e-06
3.180619219813808114e-06
1.959522737069712759e-06
2.409462026818329192e-07
2.947858572554329108e-07
3.620640978901299703e-07
4.329912707078618499e-07
1.057274587683998011e-06
-2.162643334375111206e-06
-2.906176580712611759e-06
-2.456707523476323890e-06
-2.679563112190426301e-06
-2.320096821364767366e-06
-9.636705171828331953e-07
-1.114245830778543427e-06
-8.278399043694925559e-07
-8.774334952239998896e-07
-7.050357879881506836e-07
-5.972171977869897397e-07
-1.205637499445967633e-06
1.132205042177764488e-06
1.052993130514294880e-06
1.097216977779144441e-06
1.020518369302251685e-06
3.112630837753707293e-06
3.082269196696556459e-06
2.041042080881157144e-06
3.196354110893747858e-07
4.448470871660538056e-07
5.847883178591351094e-07
9.442389064993560901e-07
7.691337472327160478e-07
9.662345857250641729e-07
1.040822783166965026e-06
-2.147176221995355606e-06
-2.864026984447875945e-06
-2.565559104757697584e-06
-2.309776533977702812e-06
-1.011233026673807829e-06
-8.596047519168176329e-07
-7.378680128465033041e-07
-5.777033917604438499e-07
-1.134217829422646849e-06
1.133211132058717751e-06
2.997255677719765534e-06
3.001278702162202146e-06
3.045246929419421452e-06
2.405665052600762742e-06
2.275395140454514497e-06
2.136157301750293303e-06
3.909356956759521239e-07
5.679475038354363730e-07
7.020600620536559253e-07
8.494250457683071397e-07
9.686395824100115285e-07
1.054245902559602340e-06
-2.145288652211522280e-06
-2.811011065604173853e-06
-2.454830740651736693e-06
-9.275037485838729965e-07
-7.426653009985082889e-07
-5.563316276035547346e-07
-1.036779857560839210e-06
1.171760559006020837e-06
3.098767132826099030e-06
2.850524826176240578e-06
2.923839923324809124e-06
2.948871138831660954e-06
3.010817068457494898e-06
2.703002322651521599e-06
2.533414989329641735e-06
2.384356870673303974e-06
2.223550325459529234e-06
5.027714663786450280e-07
7.380035587659972590e-07
9.327312822050134788e-07
1.074093127535607486e-06
-2.115193396941545586e-06
-2.744610333467765529e-06
-2.297402646417548155e-06
-7.809387142943609401e-07
-5.427373605602757732e-07
-9.001152237958991815e-07
1.191246071319486075e-06
3.034710250856222038e-06
3.145470436414190331e-06
2.816039630548363826e-06
2.922242575129466992e-06
2.954153012724412898e-06
2.582498143884672534e-06
2.352729936410660741e-06
6.461257764963341553e-07
9.616007071474569532e-07
-2.661285069058168488e-06
-2.089511329013976869e-06
-5.326476182870428793e-07
-7.660841173094965682e-07
1.219608602612935710e-06
3.061350646546974848e-06
3.209248186159509650e-06
2.783304271594802659e-06
2.930509686601752455e-06
2.521986461322059363e-06
4.998288331504427800e-06
4.727079026797932950e-06
7.938181522950890374e-07
1.048843018575960384e-06
-2.556497950112220408e-06
-2.072354051066117833e-06
-3.947003479764785294e-07
-6.453302128601266972e-07
1.289337655107671857e-06
3.048343861223546257e-06
3.296138172926629970e-06
2.752568925979316149e-06
5.797751300207747267e-06
5.505517280133909194e-06
5.659341240788474870e-06
5.163750804288210012e-06
5.349485922991903272e-06
4.942723158669395380e-06
9.800673159829405103e-07
-1.959755934920762812e-06
-2.425069556790264773e-06
5.898759946792207400e-06
8.471570042124003806e-06
8.307165096573924403e-06
8.143529793040543246e-06
7.966827433966815677e-06
7.790951048773117374e-06
7.642762427062292586e-06
-3.230726413080011827e-07
1.321536244572165403e-06
3.440116855616707056e-06
3.004708076988204831e-06
5.695530164341080348e-06
5.482783179240893962e-06
5.811007830658201096e-06
5.236180143592056988e-06
3.701097169006128941e-06
1.330546880176182877e-06
-1.910250782387836614e-06
-2.260164364284709676e-06
1.046116316053403234e-05
1.030762476392536776e-05
6.099621372669738822e-06
6.412523298318112153e-06
6.745601246572367181e-06
7.085306741960788147e-06
8.376454967570657942e-06
8.036725233685965410e-06
8.197966571461781269e-06
7.397480667247925877e-06
7.835766536953518707e-06
7.640531749612322472e-06
-1.827608858242821296e-07
1.601554264643766375e-06
3.297002326360750607e-06
5.525103674372708296e-06
5.836598594336140718e-06
3.984234424945245832e-06
3.697312605441446505e-06
1.629162858831211380e-06
-1.625634555239867275e-06
-2.056052123741075653e-06
1.054373136204216827e-05
8.636072082406407620e-06
8.862454155522863370e-06
6.075447672193482253e-06
6.506833542581234032e-06
8.433886742344910359e-06
6.991924333439677854e-06
8.043870028594233727e-06
7.535311898019891137e-06
2.003472984723952076e-08
4.199680143367151797e-06
4.007610706997395746e-06
1.997851143379564228e-06
2.587618806048710577e-07
-1.822075384525709681e-06
-9.726869724461176264e-07
-1.584664433517977896e-06
-6.219125132556928815e-07
-1.357830246941023715e-06
-2.843751728009432564e-07
-1.173976717818241699e-06
-1.935316955633474461e-07
-3.631157083992678064e-07
2.871378382175786317e-07
1.058204862970862922e-05
1.056272721784884438e-05
8.761423251634618519e-06
9.073311260266321340e-06
4.566480958414586192e-06
4.343051519629979881e-06
2.265096608638551991e-06
6.011316656341566682e-07
-9.886138185018489051e-07
1.566202586699936563e-07
6.084993948852048060e-07
1.065901551568443776e-05
1.054134744443174871e-05
1.061748161546670023e-05
1.044617167601422612e-05
1.051690829615495247e-05
4.933843355885496635e-06
2.920943196954412427e-06
9.432470448665194727e-07
1.046361626881768474e-06
1.606218564660692658e-06
2.072035244460516749e-06
1.074512376852821533e-05
1.062729538133335062e-05
1.056582399658575116e-05
1.049790004673109559e-05
1.041927727360343004e-05
1.031965197526717412e-05
1.114122185457092225e-05
1.138905793347244079e-05
7.947380229097638005e-06
8.311875641587295412e-06
3.716296320857119088e-06
5.670632317974221499e-06
3.980932865343317247e-06
1.504081936619965266e-06
2.254208818096373675e-06
2.563878257381211767e-06
2.854256362846536402e-06
1.145761910968134141e-05
1.154836014242376030e-05
1.124457476399423618e-05
1.132778994428688004e-05
1.087821026058414763e-05
1.100890750816401976e-05
1.074724809291754141e-05
1.065666749960403266e-05
1.054121323178249095e-05
1.044632239541824821e-05
1.032389554819226367e-05
9.943281360695895469e-06
1.015750671864929201e-05
1.105706953232431663e-05
8.704559657115562544e-06
1.169124415006394954e-05
6.450994187094582165e-06
7.311836243007965812e-06
7.890486238041504973e-06
8.341034437899589370e-06
4.577950038561495884e-06
4.953109203233013352e-06
2.295208244333706317e-06
2.758677220049836352e-06
3.451467671242816444e-06
1.117680218824786150e-05
1.082746620384699610e-05
1.063073876056269470e-05
9.698733340359030393e-06
9.952490218276119070e-06
1.044982886187049562e-05
1.017665195960011715e-05
1.096729758914865815e-05
9.218783403485024383e-06
8.827185584051744569e-06
5.492742168900459992e-06
5.669040449195370625e-06
3.410694622728945954e-06
3.398954899704466253e-06
3.672399676364426474e-06