<?xml version="1.0" encoding="UTF-8"?>
<VTKFile type="UnstructuredGrid" version="0.1" byte_order="LittleEndian">
<UnstructuredGrid>
<Piece NumberOfPoints="4497" NumberOfCells="8293">
<PointData>
<DataArray type="Float64" Name="Current_density_norm_@_t" Format="ascii">
1.863561455395262714e-06
1.540638870555716599e-06
1.515872588767118405e-06
2.119358347854702175e-06
1.646562082434053488e-06
1.845568675653701422e-06
2.205057838354980516e-06
1.796269220142262578e-06
2.142413182330454426e-06
6.031235179790704180e-06
6.059968849873984239e-06
6.025993602415507638e-06
6.482233111965170220e-06
6.514049643217601489e-06
6.482034185122206277e-06
6.909700749117942731e-06
6.949065656523274110e-06
6.916132777787366616e-06
8.240363214865260763e-06
8.279631813243855271e-06
8.274969559514196198e-06
8.169485163347136922e-06
8.131919418162386322e-06
8.187201825578412006e-06
8.111926151558611340e-06
8.147054010093640478e-06
7.831533589700193941e-06
7.886671358773751774e-06
7.861064259642071357e-06
7.830020029462607167e-06
7.828124220039289454e-06
7.836719001794579235e-06
7.913449261631818165e-06
7.915655198840148879e-06
7.978140475862245949e-06
7.945107059164787557e-06
7.938750886417201893e-06
8.009882375848136076e-06
7.967585898291265032e-06
8.040215823206116173e-06
8.003168538633755868e-06
8.068939012995868923e-06
8.144673968335286703e-06
8.202926288986664126e-06
8.021199676804089703e-06
8.095797404479489217e-06
8.053177039901379076e-06
8.121809406122272940e-06
8.077538741133129848e-06
8.179893321250320302e-06
8.221652985389978641e-06
7.843022774374399514e-06
1.081151065724114241e-06
1.104731384849722817e-06
5.644239577426256827e-07
1.459145339373426300e-06
0.000000000000000000e+00
7.911476904017825861e-07
1.515414289899767084e-06
6.143206882315686726e-06
6.174428860239455997e-06
6.156704078926888285e-06
6.148350310518108700e-06
6.008427944714989487e-06
5.988001262303291810e-06
6.172756447966072935e-06
6.119196474416487287e-06
6.129008600726027473e-06
6.118366175077096471e-06
6.133331407106131857e-06
5.985925245774057389e-06
6.084924768320906929e-06
6.094599461797336370e-06
6.053230920360574570e-06
6.008791110232179471e-06
5.954281986857887234e-06
6.153060333253862133e-06
6.107680883200954532e-06
6.079265799656018225e-06
6.088106500724499112e-06
5.965902361756700603e-06
6.031539856921911854e-06
5.985101459745301733e-06
6.067094704917225890e-06
5.927328757251562018e-06
6.128996783595822431e-06
6.075534917475462494e-06
6.034851266494189148e-06
5.943679195229307456e-06
5.978711799357587830e-06
6.026368201939386401e-06
5.891660168806853295e-06
6.098812924073296972e-06
6.037364003375560824e-06
5.968230855717255322e-06
5.918221347999380267e-06
5.968848520313001716e-06
5.844229249579384509e-06
6.059591651599507758e-06
5.985668016625672903e-06
5.882659888031352706e-06
5.924259651783223873e-06
5.780905052942810462e-06
6.008700659396928659e-06
5.918824703850388379e-06
5.820293368803390073e-06
5.696701413761136144e-06
5.942404808930755938e-06
5.854721229955790988e-06
5.735999822200730928e-06
5.584492580254672568e-06
5.856294736919773291e-06
5.632119477063048969e-06
5.435052502974218892e-06
5.744331931276659699e-06
5.491115595646234219e-06
5.235867446061481032e-06
5.598920672207398036e-06
5.317402389681566112e-06
4.978101305478157514e-06
5.190408642492192322e-06
5.409962671284966116e-06
5.168711469664693171e-06
4.675026091171810485e-06
4.355574962368083969e-06
4.893373414792234931e-06
4.599074343678721081e-06
4.018741305661369646e-06
3.950478131005714182e-06
3.634953380179774915e-06
4.341515036758674468e-06
3.695137375349668905e-06
3.311976131090032967e-06
3.452287429716049463e-06
3.075674565524769099e-06
2.965192204527560170e-06
3.254521091249062722e-06
3.110052909571667880e-06
2.858923053730910173e-06
4.062126380000440473e-06
3.036724552618797159e-06
2.792464734267693460e-06
2.825800326151422627e-06
3.836171335885836054e-06
3.540114007680562899e-06
3.129071150016948272e-06
3.388707741998110457e-06
3.294227731080575339e-06
3.125497715151373944e-06
2.953067775859971628e-06
3.768941085197116310e-06
3.502689124727732888e-06
3.541869464587051542e-06
3.430921066742930503e-06
3.318233836133874166e-06
3.200929565826542076e-06
3.814884139968813261e-06
3.674528034989238745e-06
3.631088894681047104e-06
3.525258660578880011e-06
3.423246973076056924e-06
3.969173830766384593e-06
3.839524763822370291e-06
3.668903451101935818e-06
3.654467485774454521e-06
4.258412952282072283e-06
3.984435052498059622e-06
4.054421473455518180e-06
4.412034265132104484e-06
4.762041393638929672e-06
4.842685237629908699e-06
5.255590234468012029e-06
4.601141583762554590e-06
5.175991839760023833e-06
5.710602564309177606e-06
5.930042593196244620e-06
6.168518125157682698e-06
5.680438493196198713e-06
6.159041528171730534e-06
6.596829921651921134e-06
6.852700838438135754e-06
6.972040490462222952e-06
7.057967039092808118e-06
7.266067078285479738e-06
6.612868585153463421e-06
6.998997269775184620e-06
7.273070066150660399e-06
7.492277941268927622e-06
7.696926404497116451e-06
7.800345728616847038e-06
7.666383996926381253e-06
7.297191468437505390e-06
7.525849905093119508e-06
7.662402701215207415e-06
7.805358268217754884e-06
7.903416509743763606e-06
7.521215403011503719e-06
7.689206919388777333e-06
7.915198340372786351e-06
7.790671819853754320e-06
7.868723479801961352e-06
7.982622417705951908e-06
7.991165017325072906e-06
7.815432739145871806e-06
7.940253068616313486e-06
7.895418808920509957e-06
8.043605553699780162e-06
8.009298755582421075e-06
8.050131379351249973e-06
7.910166365205127610e-06
7.977563243901285658e-06
7.967393949175232602e-06
8.033959490831609198e-06
8.090620315222088002e-06
8.063329862098606132e-06
8.093497797318626737e-06
7.981321556247608889e-06
8.019236003269236695e-06
8.030574633140197103e-06
8.059939364998383094e-06
8.085382038963588046e-06
8.070262283784381441e-06
8.127840372232484121e-06
8.107979884271820922e-06
8.127377418805776016e-06
8.034657148781752442e-06
8.062902186073621998e-06
8.096722183169438375e-06
8.126272274666613689e-06
8.090435729800524891e-06
8.110380033978384235e-06
8.162093365821851217e-06
8.144413248882159502e-06
8.075041954051260864e-06
8.092512529414327063e-06
8.158752699103587227e-06
8.115037130385367834e-06
8.129775230311264919e-06
8.132039036515562659e-06
8.152609724483500595e-06
8.138677890771388405e-06
8.183783944274062265e-06
8.113042736089047825e-06
8.186917385020927836e-06
8.144345330703853887e-06
8.160681829938349564e-06
8.168968587240823883e-06
8.178578556868803878e-06
6.587799101931277862e-06
6.623368792422352923e-06
6.607924324256005982e-06
6.460078031755869146e-06
6.444241644241256941e-06
6.437394042366034031e-06
6.561672925748887387e-06
6.578355049364698802e-06
6.500241342642335023e-06
6.545051195155596896e-06
6.530558007072402283e-06
6.553219473907881267e-06
6.610714958942929279e-06
6.568575499319533277e-06
6.409219977945519503e-06
6.455084443188884786e-06
6.419722333056543831e-06
6.511911238700980505e-06
6.476195818804513382e-06
6.523579504194394777e-06
6.597585902048380878e-06
6.543219220104500293e-06
6.384524348378608740e-06
6.480690721023863631e-06
6.410939383166983365e-06
6.449447634180399626e-06
6.486275831976385197e-06
6.571446014004893030e-06
6.506847174811977987e-06
6.351366942613043927e-06
6.432694409188619617e-06
6.384714011411680187e-06
6.436890778228581528e-06
6.536944905427174585e-06
6.458546306603364571e-06
6.306385948654130237e-06
6.357955337284729307e-06
6.392651965389328463e-06
6.490980507238331248e-06
6.392644440324919145e-06
6.245759892127881828e-06
6.309550901649089178e-06
6.306352845270722136e-06
6.429843057815747423e-06
6.164017324205836136e-06
6.194293121527764273e-06
6.348511689996903378e-06
6.053656160391678575e-06
6.136846795346574408e-06
6.240343586905100151e-06
6.053354360421257402e-06
5.904760913219651497e-06
5.941881562473367381e-06
6.097370144739632098e-06
5.852347382224302792e-06
5.703698478343095676e-06
5.908058885500677850e-06
5.729337705507475454e-06
5.435885115294789721e-06
5.746743457193103138e-06
5.493383011142019570e-06
5.226875902722198846e-06
5.563981849975686367e-06
5.258712380567836232e-06
5.002871378545901015e-06
5.176495421733171096e-06
5.403767927095109999e-06
5.138947172060754769e-06
4.807010085632321894e-06
5.036493784232392256e-06
5.366995025065427030e-06
4.754168696767339106e-06
5.115366187785940303e-06
5.431524512945784690e-06
4.812388626239462892e-06
5.219791843514482451e-06
5.595950956323529156e-06
4.978673712219503305e-06
5.318475884781946261e-06
5.527687221517626650e-06
5.877601894396493314e-06
5.275049867050330748e-06
5.706167946362459879e-06
5.968826246741067485e-06
6.319326891745269594e-06
6.518943901123091115e-06
6.690023983935717902e-06
5.760549938583927404e-06
6.185024283679939780e-06
6.819054512363641218e-06
7.017433002517553227e-06
7.084801874466687348e-06
7.345635043587708499e-06
6.581140305037695893e-06
7.253447529688510540e-06
7.421711360829930657e-06
7.593448493106153184e-06
8.170120398780192321e-06
8.212580732504719754e-06
8.167466668896334442e-06
8.209228908676763595e-06
7.021871855439718232e-06
7.352689906515394502e-06
7.584443020755704540e-06
7.780959319167604995e-06
8.114401966331800923e-06
8.107578063432935306e-06
8.042843354253037359e-06
8.027878575625550491e-06
8.129264019085905509e-06
8.181893975368638292e-06
8.155441909765296987e-06
8.215249919761780832e-06
8.241109288967096889e-06
8.234292428261804481e-06
7.953571373169487680e-06
7.921941184599565300e-06
7.850017925541482675e-06
7.732722360378901870e-06
7.597885479727691168e-06
8.060417516145755264e-06
7.992670030672074545e-06
8.093871712241129532e-06
8.146538160341559463e-06
8.207438410992377628e-06
8.192578479421625570e-06
8.243626568172063697e-06
8.268579539834009304e-06
7.886512398864730939e-06
7.779381625895692609e-06
7.993854815575319938e-06
8.077637649553146451e-06
8.132048067464340291e-06
8.181735536901166929e-06
8.196972450723469738e-06
8.240121606733999702e-06
8.232741911218783592e-06
8.278320533046705241e-06
7.913996045194499841e-06
8.087537281252947855e-06
8.013705903115769027e-06
8.209297727977904008e-06
8.194599115295111080e-06
8.167897585610692330e-06
8.142327797868943032e-06
8.225295520880177025e-06
8.230535208351520408e-06
8.273063012411818645e-06
8.267522432702051498e-06
8.216893742620566416e-06
8.196829504890929059e-06
8.182853078204118294e-06
8.263301854680410018e-06
8.249843475062554687e-06
8.220482114554115852e-06
6.886909926787180628e-06
6.878972925892230259e-06
7.019892210501185820e-06
7.052923216167754234e-06
7.041481845726651296e-06
7.019765895032617290e-06
7.040807389484168280e-06
6.862494638346610301e-06
6.842718583570562988e-06
6.997454557573568077e-06
7.016885218843511890e-06
6.962583864440779814e-06
6.983173723043605237e-06
6.935129656852901085e-06
6.869066260852010131e-06
6.890980734202883407e-06
6.989492915933650094e-06
7.002206767978562067e-06
7.026157801429329961e-06
6.822501853996157496e-06
6.946061349773563591e-06
6.895477009932402240e-06
6.850706121268819435e-06
6.950973901255943824e-06
6.972881631493161793e-06
7.003974502220155961e-06
6.794940838599104775e-06
6.890680977562378071e-06
6.833396994820285744e-06
6.903736438508482250e-06
6.933723605973073323e-06
6.974558290325440431e-06
6.757639681604660982e-06
6.810706260410118229e-06
6.866258506773042769e-06
6.879641609070694019e-06
6.936068616447606983e-06
6.706908351082645443e-06
6.768629647421697422e-06
6.817722318501064699e-06
6.886319357999280609e-06
6.638475579771457790e-06
6.712687162115157444e-06
6.726697549929798030e-06
6.826427065628663416e-06
6.545613705099958053e-06
6.631575978463792953e-06
6.750482633468950470e-06
6.419852189590654957e-06
6.542962909573110853e-06
6.679714086391964743e-06
6.313873245204650839e-06
6.462202525934795186e-06
6.593909876993492060e-06
6.444871443384738219e-06
6.560174238848793327e-06
6.187779810434758821e-06
6.370219116760289049e-06
6.525275210065770081e-06
6.080063594047530722e-06
6.301235932452133716e-06
6.528884792427712007e-06
8.271828062736356750e-06
8.262631995424048843e-06
8.300668299047879686e-06
8.273770773001035977e-06
8.309811366242470361e-06
6.066647663379478665e-06
6.316244671006239802e-06
6.598300065253054185e-06
8.272685088396924423e-06
8.245109737921437284e-06
8.236913086351093570e-06
8.230781607582584941e-06
8.236760292348538831e-06
8.309561038893127993e-06
8.271145281660864985e-06
6.135824175327385757e-06
6.436768315902407178e-06
6.734384914439594397e-06
8.229488726487487491e-06
8.218551660948027177e-06
8.190777962407774253e-06
8.185281270929833209e-06
8.189876059600880736e-06
8.124123857634125604e-06
8.128219902700441974e-06
8.253581555565636912e-06
8.257364868830518301e-06
8.224404463978200416e-06
8.237622196666458401e-06
8.268736313660141941e-06
8.211450655687146485e-06
8.188601505596047447e-06
8.275081891804204670e-06
8.272462282802759561e-06
8.281998369222150463e-06
8.309263834060978853e-06
8.308936811536198107e-06
8.234655775656687167e-06
8.271484888622705322e-06
6.650111088821075264e-06
6.944056437493629186e-06
6.878623794537802613e-06
7.095547368909772639e-06
7.088500331198555973e-06
7.242276221884772633e-06
7.222624323654043614e-06
7.469168740261491877e-06
6.287767875867341200e-06
8.171251474997521860e-06
8.134766115831415810e-06
8.038430617170131204e-06
8.047174101214631982e-06
8.068234571051654017e-06
8.196131619974970288e-06
8.140290346131275853e-06
8.143702586213799919e-06
7.936314315071657380e-06
7.942288312138695843e-06
7.432858103633439800e-06
7.656582829692041125e-06
8.308743447437922297e-06
8.298755978605417051e-06
6.533289200506327056e-06
6.897538982321880760e-06
7.187275585773932780e-06
8.068962919125223670e-06
7.968653182620352780e-06
8.072794897534674768e-06
7.634339642789097932e-06
7.816491808333630577e-06
7.799604394965454392e-06
7.853953995894940053e-06
7.430702389345405580e-06
7.976610258319890190e-06
7.846353045030459927e-06
7.669887252148215476e-06
7.345552855275692497e-06
7.373341178739100058e-06
7.348067592972582044e-06
7.324929569011276508e-06
7.312013724589417891e-06
7.357301838206370208e-06
7.392032782239290439e-06
7.371552167623084730e-06
7.415752645858746845e-06
7.323889440610299208e-06
7.274647576110215487e-06
7.295274686199987154e-06
7.387489147765002585e-06
7.447111692687705926e-06
7.330692073202165068e-06
7.345555862690902544e-06
7.289205025094825696e-06
7.261954596921222164e-06
7.406894031560148206e-06
7.487918168572241659e-06
7.481918248910748898e-06
7.423682972656172100e-06
7.339985824684432541e-06
7.287408315117461110e-06
7.244726349523258031e-06
7.475377378662108216e-06
7.397186461108240646e-06
7.354739316136972818e-06
7.272890011975408141e-06
7.221296703935321953e-06
7.368993112293400868e-06
7.454633040287180756e-06
7.280468208071569078e-06
7.189532822591706086e-06
7.342790725016297283e-06
7.428827031037927846e-06
7.233180225951512976e-06
7.348571743860251665e-06
7.146314766850003567e-06
7.419527619166307499e-06
7.114670876902014342e-06
7.226992807648675899e-06
7.324548931284586625e-06
7.409428197959301506e-06
7.075771206260715925e-06
7.218620915407806097e-06
8.253536102260862996e-06
8.273760192296261527e-06
8.244403480474092941e-06
8.249755006462395954e-06
7.241194961659809922e-06
7.415410063761108181e-06
7.065104533535305924e-06
8.230844450517144239e-06
8.268775908442239068e-06
8.219272698388090253e-06
8.261663635779872063e-06
8.208543457814925146e-06
8.214075918890385728e-06
8.214187428403912515e-06
8.253226358813490579e-06
8.202304791083390740e-06
7.261743142870794210e-06
7.445490495798671651e-06
7.053811140021801235e-06
8.152790051987109871e-06
8.192473965936655195e-06
8.145174381584216082e-06
8.180122033814681820e-06
7.766773507985510599e-06
7.895220058250174508e-06
7.811551576223905945e-06
7.866712989896493743e-06
7.972516878719246097e-06
8.134197010383306905e-06
8.167761528009920616e-06
8.036995005862227734e-06
8.078498207679673409e-06
7.299153870315225944e-06
7.499376279069515747e-06
7.374247839512820060e-06
7.577465541486604461e-06
7.618398908588978049e-06
7.680901560861472488e-06
7.645560382614943989e-06
7.486961301124997257e-06
7.505895927187485389e-06
7.075903507180830101e-06
8.073609248327464382e-06
8.071373257447884977e-06
8.133960964776687524e-06
7.912251758342757975e-06
7.771424747928334475e-06
8.008561681803354936e-06
7.925059869928819645e-06
7.605033223169727567e-06
7.140284927298733396e-06
7.247345356416927236e-06
7.400278383194043542e-06
7.986566206714163470e-06
7.751674319083804121e-06
7.871222692444481241e-06
8.114086632755403204e-06
8.076930237081837792e-06
8.047998518275705610e-06
7.862293690365274349e-06
7.889260215327579189e-06
7.923970500242707123e-06
7.966741388021513889e-06
8.017627336331626276e-06
6.197035155573141313e-06
6.254149952554184766e-06
6.214414214336210517e-06
6.167288136726099902e-06
6.174219721413676460e-06
6.132172944150322544e-06
6.133516342049442166e-06
6.094583145622353445e-06
6.091225618597319782e-06
6.042502670031628959e-06
6.046720024443958620e-06
6.293807472884465652e-06
6.240117877197101315e-06
6.059923623021912772e-06
5.982244895811102650e-06
5.997272777912262938e-06
6.482413830499063719e-06
6.537824179009949295e-06
6.496695708346871939e-06
6.455390365841133095e-06
6.440120073627115923e-06
6.529749611915769671e-06
6.578555681216783323e-06
6.615815797416698558e-06
6.658837545484052036e-06
6.618864280531953928e-06
6.561534745748536489e-06
6.278696035390779323e-06
6.333367823263060545e-06
6.314968609650662385e-06
6.373643026540714772e-06
6.358111942870843538e-06
6.414186726704223887e-06
6.401341325919161086e-06
6.647752614689347983e-06
6.698375091506655786e-06
6.675678168389930655e-06
6.737760522966746487e-06
5.933836954868736317e-06
5.915949083905629668e-06
5.857189095732906639e-06
5.866505625374339480e-06
5.811416364455177321e-06
5.808146133556558119e-06
6.717229628716354548e-06
6.777087803180760004e-06
6.905639218609472569e-06
6.971872013883785835e-06
6.933269760409826477e-06
7.076125411966433105e-06
7.125531688713320719e-06
7.087315239376273005e-06
7.029400882591801177e-06
7.049065261462866307e-06
6.997175168016851960e-06
7.010589580305640990e-06
6.962647991642562759e-06
7.414751630060673621e-06
7.462964710450725340e-06
7.432488552413564226e-06
7.378897371745569072e-06
7.403119681189114539e-06
7.119767620299588635e-06
7.163525311791378774e-06
6.750163957297642073e-06
6.816147840892833453e-06
6.867445823420896161e-06
6.894409491075342971e-06
6.855395379921228701e-06
6.826151575071478740e-06
6.784986594221566577e-06
7.438283669618842642e-06
7.494607910744372868e-06
7.342399369567798303e-06
7.372730127108848248e-06
7.178460602047281365e-06
7.238541539363386706e-06
7.201255707658998762e-06
7.140321444271440522e-06
7.464165769485580548e-06
7.527501109471708445e-06
7.309781301749257943e-06
7.341129358281338486e-06
7.308171713123233083e-06
7.271724958728766277e-06
7.239287201478398206e-06
7.274081017636305987e-06
7.208636730268400963e-06
7.536473314871022764e-06
7.597831909262186281e-06
7.562030001168015406e-06
7.552412707993381111e-06
7.635737516873202603e-06
7.671742694445575578e-06
7.754620359711643303e-06
7.716211554178170951e-06
7.640690461051570311e-06
7.675467419833878640e-06
7.557798728294867757e-06
7.705512068059392581e-06
7.791543833617674148e-06
7.731630366290283325e-06
8.309267475847442988e-06
8.354735092695012190e-06
8.348387460866161722e-06
8.241116681924763907e-06
8.145261893605517078e-06
8.169214654342046801e-06
8.258887886553062672e-06
8.302609876273566830e-06
8.340664787057508340e-06
8.314076649753561214e-06
8.359950115016855101e-06
8.190200889993618034e-06
8.275780244363267383e-06
8.217791461104554949e-06
8.291797938711898051e-06
8.297888579694865985e-06
8.331145861065401929e-06
8.252640315620406110e-06
8.319510391161845793e-06
8.306477897249227353e-06
8.312041882706413924e-06
8.364661802333093872e-06
8.203278236165326557e-06
8.317270396231769123e-06
8.368812554055926026e-06
8.372572066227520877e-06
8.317225853051503245e-06
8.378520890185539694e-06
8.375736109846136499e-06
8.323072308624870509e-06
8.317877259706431622e-06
8.380726475757122599e-06
8.325886826219529391e-06
2.046737434981467113e-06
8.330032569031586449e-06
8.382538653924373966e-06
8.330589203800808904e-06
8.383831248101299158e-06
2.287171871149071045e-06
8.340312703294996616e-06
8.384465968353422110e-06
2.483409527409276320e-06
8.344562510271596315e-06
8.384797116288019876e-06
2.609106651357260097e-06
8.344037473679797253e-06
8.384391319653807889e-06
8.344465106825229211e-06
8.383599692025937655e-06
8.335932595339727832e-06
8.382305323190355537e-06
8.334095108700546227e-06
8.380550980439236048e-06
8.331296111535692586e-06
8.378159993217355989e-06
8.322829622507017246e-06
8.375411601640808738e-06
8.372176362473375885e-06
8.316339986644134989e-06
8.368482094291159167e-06
8.318589215061064103e-06
8.325508655379090344e-06
8.364429826768424373e-06
8.321787806504085945e-06
8.359907286627884092e-06
8.317781569957099545e-06
8.355079971697772332e-06
8.349782598670689855e-06
8.311756898634580897e-06
8.308100142295271457e-06
8.344088408409482577e-06
8.302296987446594189e-06
8.337935984821850995e-06
8.291000434828851802e-06
8.331516342787183261e-06
8.288591229524369284e-06
8.324611019690820741e-06
8.277769558508626846e-06
8.317249584776875796e-06
8.266610051491087585e-06
8.309334575406374180e-06
8.253017006222187408e-06
8.301026959238038154e-06
8.246317009463910108e-06
8.292331974758146521e-06
8.101454927248328818e-06
8.141168867693805442e-06
8.160498122615895245e-06
8.240147130208257202e-06
8.283178277399736477e-06
8.105477221054709013e-06
8.182163364520579534e-06
8.117283515585468117e-06
8.201967109429568952e-06
8.273700812932193704e-06
8.227335570837414943e-06
8.228553090483119812e-06
8.263612053854494838e-06
8.217165549197706954e-06
8.150765514945009256e-06
8.217772526681321946e-06
8.253165036877093972e-06
8.186103018996463115e-06
8.230438349146076859e-06
8.201025330338936108e-06
8.242264283795806070e-06
8.208221612854721969e-06
6.212080177165121215e-06
6.010277356563832875e-06
6.011965720536108698e-06
5.983833578983999694e-06
6.200981096796195342e-06
6.207792171310382270e-06
5.961724823826960777e-06
5.953398272827857092e-06
5.929220250057808620e-06
5.915993399817380089e-06
6.498932575850630136e-06
6.582876225366379601e-06
6.232852436641230953e-06
6.387221289425786581e-06
6.192202423453980631e-06
5.897291284673957429e-06
5.896960236108900274e-06
5.879586271092675001e-06
6.472463068024470506e-06
6.445832823425264252e-06
6.416077725485043944e-06
6.256630337309096497e-06
6.212535103959397148e-06
6.286968802535326752e-06
6.344637151251886399e-06
6.392360399169500622e-06
6.338477228768146592e-06
6.366324455912523650e-06
6.172588351608552283e-06
6.640693469140408978e-06
6.664547133792333334e-06
6.931729436395394667e-06
5.864014525719853658e-06
5.754590322969278620e-06
5.845135982111725794e-06
5.823887287542674943e-06
5.770398160469314643e-06
5.808137286953717034e-06
6.415387453698081920e-06
6.213449526184331273e-06
6.237517701210204504e-06
6.285614148273340582e-06
6.306251010668873156e-06
6.379483179642536898e-06
6.340382267152235159e-06
6.153494668502172978e-06
6.901986125363570798e-06
6.878181523852917767e-06
7.075434339243986357e-06
7.090192323572266999e-06
7.050328260679460704e-06
7.389439418900060154e-06
7.338829540810481726e-06
7.075221162886741788e-06
6.628873117503672012e-06
6.632272113611450180e-06
6.651667664126823491e-06
6.692558993534018587e-06
6.855264270272237681e-06
5.816646486650252576e-06
5.688819394030274129e-06
5.759326667090301682e-06
5.708806665079418037e-06
5.742951483938511007e-06
6.226492764528404589e-06
6.186542353105967825e-06
6.265010798768201859e-06
6.221569344110846583e-06
6.304937792296820098e-06
6.353780353000782909e-06
6.123725058522021716e-06
6.848925621249718292e-06
6.825036025043179630e-06
6.814160404708451431e-06
6.797754034461388450e-06
7.311074839473943810e-06
7.277474259998323303e-06
7.080536181431372780e-06
6.612260015333400320e-06
6.651633725006662998e-06
6.708425268905974349e-06
6.802629571751881190e-06
6.757615155701604508e-06
6.769187984187408534e-06
6.777652821530697681e-06
5.754082889442031525e-06
5.606316639228808919e-06
5.641289958408075790e-06
5.677489728164472905e-06
6.162931453071440837e-06
6.189220338728997898e-06
6.249684920173139460e-06
6.316122926106460098e-06
6.087392518399551912e-06
6.793833886999910923e-06
7.282324734509367363e-06
7.246887397521894206e-06
7.238515438580725488e-06
7.156055655207903970e-06
7.115958152730866569e-06
7.071532106437876405e-06
6.595791844321906483e-06
6.638670918433401588e-06
6.696413129206456275e-06
6.726868347393513272e-06
6.743514666186954938e-06
6.747636837558747081e-06
5.666412569517774972e-06
5.502848524075429460e-06
5.541543561653857928e-06
6.128888849564596149e-06
6.183528798767853820e-06
6.270206207945629151e-06
6.043981547228689731e-06
6.763866338817520858e-06
7.226756124030912967e-06
7.243820437571233428e-06
7.233799176813346095e-06
7.210685370897436837e-06
7.205668742620381123e-06
7.202635589989502732e-06
7.170250563200563966e-06
7.100609422199000988e-06
7.048351535978302080e-06
6.570464002682048392e-06
6.631276039551246021e-06
6.696490595078752934e-06
6.714508624682361896e-06
5.586192207822393799e-06
5.372801045840574236e-06
5.441873491733337431e-06
6.105847362985962991e-06
6.200343894827280076e-06
5.990354824525725278e-06
6.709167640596046496e-06
7.177075880546487055e-06
7.202349498784912651e-06
7.180668477976153403e-06
7.167424563826851999e-06
7.137642317444306204e-06
7.110543728531801332e-06
7.029112206844058786e-06
6.539530384628991338e-06
6.625365859271892548e-06
5.209512157845893479e-06
5.380142770808133266e-06
6.090247833152614927e-06
5.912690894228148696e-06
6.646842703510097685e-06
7.138467967789960588e-06
7.161058973437758560e-06
7.095769631969335560e-06
7.085863433292663452e-06
7.007118502570651807e-06
7.629586160972615279e-06
7.560777500012769664e-06
6.489256406834358271e-06
6.557062578355049809e-06
5.004710396970264951e-06
5.206346463958732993e-06
5.977435532389329668e-06
5.822104944390005160e-06
6.576764806361990430e-06
7.062587991930251498e-06
7.097400493794606691e-06
6.985356832891529460e-06
7.777787896698112297e-06
7.748228893179335807e-06
7.758226903321109737e-06
7.641160765491932677e-06
7.675421411061520089e-06
7.541647532238013695e-06
6.447288791366746398e-06
4.977708474381748259e-06
4.747486493397226152e-06
7.761622433304327820e-06
8.140962973668463903e-06
8.099754616626186524e-06
8.071069454926137408e-06
8.034726150271721088e-06
7.998643613066576451e-06
7.979041344567647828e-06
5.826732923513442302e-06
6.464233184664698065e-06
7.035945419106090408e-06
6.933260275104023446e-06
7.702222440782527797e-06
7.666848647382555637e-06
7.674995196599775706e-06
7.570001092387104738e-06
6.992053600780839621e-06
6.336457527995057889e-06
4.718141364977251027e-06
4.424505091259212932e-06
8.311395351084678229e-06
8.301816165825350551e-06
7.737390639978305535e-06
7.747018813127497157e-06
7.782073615540181815e-06
7.861369776612807451e-06
8.032502336774333557e-06
7.997347173515445367e-06
8.029914537373935066e-06
7.896212167466438680e-06
7.943384133923624187e-06
7.923368873856920659e-06
5.633334005812315107e-06
6.315072922701676727e-06
6.856731639572103025e-06
7.570955108913232187e-06
7.603351080154280607e-06
6.982546617691342015e-06
6.822245914839403710e-06
6.184029433713134762e-06
4.463254310486609169e-06
4.024811116342444486e-06
8.281217427672812900e-06
8.067453159432061625e-06
8.111200615583884116e-06
7.586061190347210794e-06
7.625338254952023244e-06
7.952892320412881767e-06
7.713974709529070983e-06
7.906471644415082221e-06
7.799363670831463587e-06
5.411439191628988825e-06
6.913862700284768029e-06
6.738620449413486028e-06
6.179907969981139768e-06
5.205896920340873421e-06
3.567019187222512739e-06
3.590933267261645381e-06
3.102080605531341828e-06
3.105167080778349110e-06
2.658090325310707317e-06
2.591311578885893483e-06
2.298123178543818526e-06
2.416208539980238198e-06
2.818615582214026152e-06
2.767811154883567606e-06
8.271798055068531298e-06
8.240792628143857416e-06
8.014052790301935179e-06
8.108395132979075084e-06
6.888876507070613567e-06
6.702838367450300037e-06
6.030063147874046012e-06
5.059505650847981164e-06
1.935351549880031269e-06
2.309114228549916652e-06
2.642033156767863598e-06
8.275066023095911945e-06
8.201229883670886110e-06
8.233733964766980291e-06
8.168541511363792322e-06
8.164885011127367821e-06
6.801180577933480653e-06
5.836290677086283315e-06
4.792050243712706506e-06
2.533978721402133976e-06
2.566084297108796706e-06
2.607627502195805062e-06
8.259990777907489509e-06
8.198459758158422553e-06
8.154786605629616372e-06
8.131915782261596689e-06
8.124260343051675903e-06
8.115681579763432761e-06
8.279540624324328144e-06
8.289702132674394206e-06
7.328125014513069542e-06
7.462710230499654340e-06
5.821651846295249123e-06
6.832750161286201405e-06
5.692169790787109815e-06
4.546956187305403908e-06
2.463535737571983711e-06
2.706568638880220973e-06
2.682761911289094853e-06
8.278845785571121074e-06
8.303707299714560504e-06
8.265149791551493577e-06
8.240527777991522781e-06
8.254216100949501969e-06
8.260606984670014154e-06
8.212473668250464594e-06
8.161732812471944045e-06
8.117994530112499835e-06
8.097693318776051690e-06
8.063927969503580692e-06
7.968542681987422042e-06
8.049636399898881087e-06
8.217143304520857527e-06
7.543431508794387317e-06
8.334380943036692827e-06
6.934358598554769311e-06
7.110175867021368036e-06
7.163200969278571244e-06
7.327808532252201934e-06
5.802255894158145080e-06
5.722441539761369606e-06
4.330534264067949059e-06
4.090604833192962063e-06
2.825561800689808408e-06
8.196135063343937729e-06
8.175205381887419505e-06
8.111301540359734715e-06
7.837041127870133543e-06
7.904230036669609790e-06
8.050458675356314954e-06
7.966666132448480082e-06
8.135406049813958312e-06
7.655647696874560068e-06
7.456287592148592415e-06
5.757832978844309040e-06
5.974317569660724040e-06
4.165775439850634898e-06
4.453695623863953411e-06
2.691964958463513328e-06
2.954679340779989310e-06
4.159949176990196186e-06
7.696074018991796254e-06
8.048632797907291476e-06
7.820837367163662292e-06
7.937941263133715291e-06
5.958301127381837948e-06
4.542783356909856662e-06
2.891601554723502831e-06
3.149673923788316679e-06