<?xml version="1.0" encoding="UTF-8"?>
<VTKFile type="UnstructuredGrid" version="0.1" byte_order="LittleEndian">
<UnstructuredGrid>
<Piece NumberOfPoints="4497" NumberOfCells="8293">
<PointData>
<DataArray type="Float64" Name="Current_density_norm_@_t" Format="ascii">
6.583001239535427162e-07
-6.628632253577623052e-07
4.140036808615633573e-07
1.880886592790065034e-06
1.232355808299183094e-06
2.088485784361749655e-06
2.945101429300811863e-06
2.569416620162436418e-06
3.933505010120503010e-06
-1.595617508386663767e-06
-1.576971152250218471e-06
-1.663923291386374251e-06
-3.657444582715916546e-08
-9.831743660840652050e-09
-9.898697889394439582e-08
1.627973330550312166e-06
1.666418905942768119e-06
1.561853377976235959e-06
1.026186800075823840e-05
1.034984698767211882e-05
1.025915950215129005e-05
8.097476543041661433e-06
8.073902060746092200e-06
8.260832966631188737e-06
7.950394062003427937e-06
7.898532841682084156e-06
5.913606035628304041e-06
6.004076924980630768e-06
5.844334837091115492e-06
5.790978853134272046e-06
5.644362369635613402e-06
6.036958782855590260e-06
6.175458879140968319e-06
6.436189975815641958e-06
6.605669907927242226e-06
6.382598186488297211e-06
6.645108048001292245e-06
6.827652224813550784e-06
6.900060602140418826e-06
7.047343402491220617e-06
7.103214627936611591e-06
7.262581799970257899e-06
8.264609033581012595e-06
8.411799226958172168e-06
7.285718032558194450e-06
7.473204032861742619e-06
7.514793021047743456e-06
7.684455129292231491e-06
7.703507640576437890e-06
8.417177068010103298e-06
8.599145787564426056e-06
6.186214986591755956e-06
-4.779963108975617187e-07
6.333525246271967565e-07
-2.495451306758589414e-07
1.805422296778801155e-06
0.000000000000000000e+00
1.452558685854934520e-06
2.782338817652611478e-06
-1.229263668171092346e-06
-1.171755468412257053e-06
-1.256203511360664581e-06
-1.180516590899963405e-06
-1.643576043471174197e-06
-1.719844384480158514e-06
-1.106734396070053618e-06
-1.299596233099381963e-06
-1.347835858818797409e-06
-1.238451311210132112e-06
-1.156035568093208231e-06
-1.660969325441396773e-06
-1.401576183066461545e-06
-1.462292498515849903e-06
-1.512790217168937044e-06
-1.580631432622840524e-06
-1.735737384996310901e-06
-1.076493058676543640e-06
-1.145408570709809836e-06
-1.327483489859429410e-06
-1.240583133376906942e-06
-1.645912023902077256e-06
-1.454912272055788004e-06
-1.550841918447700381e-06
-1.213664220290898363e-06
-1.715212414818389297e-06
-1.053795561325935172e-06
-1.132277034934164327e-06
-1.328900605808260509e-06
-1.601646586622220506e-06
-1.475371564331070521e-06
-1.237002945148463873e-06
-1.688117573238095974e-06
-1.025093514553303644e-06
-1.117273345332532915e-06
-1.377284925859650119e-06
-1.537789029034819651e-06
-1.251687960384299449e-06
-1.651959576920792074e-06
-9.877777838258500027e-07
-1.090935122188254065e-06
-1.432495732835954205e-06
-1.223548320632525415e-06
-1.603942069625942991e-06
-9.391913357475284465e-07
-1.083683827784347624e-06
-1.314021385376802188e-06
-1.539838013286609475e-06
-8.761935491259923087e-07
-1.050911777116714594e-06
-1.186169579427920669e-06
-1.454501478666797752e-06
-7.942727411766507012e-07
-1.084440091905648475e-06
-1.340820459336591129e-06
-6.878544404215798595e-07
-9.419485654319344160e-07
-1.189533237890090571e-06
-5.494615746916347378e-07
-7.733951372030885553e-07
-9.934422254477558617e-07
-5.964383203690844487e-07
-3.695779468795828005e-07
-1.400518137214943519e-07
-7.631384539202411475e-07
-5.200544361367922204e-07
1.219251223424638056e-07
4.020360586419678188e-07
-2.640332521299969590e-07
5.620372171181514464e-07
2.780452563482766295e-08
8.272797761339743691e-07
9.308048521081888399e-07
4.816717983368357361e-07
1.266963039593677528e-06
8.137702724195717298e-07
1.115323944031409435e-06
1.466555793901723440e-06
1.622020756590262325e-06
1.405292057313826557e-06
1.288404194343471850e-06
2.507256092798274003e-06
1.946601956806927660e-06
2.507779992338173878e-06
2.006815790432576227e-06
1.902039095871846569e-06
2.124278811706372580e-06
2.087849378972345455e-06
2.801428524614473386e-06
2.976221686128798221e-06
3.152316037430401499e-06
2.682077585344664926e-06
2.678305570692589542e-06
3.162514571891122096e-06
3.365654308099952510e-06
3.638937815083495493e-06
3.972575374562000129e-06
3.385555091582186573e-06
3.613926358101656592e-06
4.000816965832164458e-06
4.235230480076701528e-06
4.554152771746475148e-06
4.185184757914760692e-06
4.615236574088792121e-06
4.738127917303545213e-06
5.158956484590158538e-06
5.176789430313354035e-06
5.355388597077315089e-06
6.055701669674762872e-06
6.277171998943571914e-06
6.542682136304133584e-06
7.238347158730128823e-06
7.689763727002914506e-06
7.281392377333038163e-06
8.423981140054935093e-06
8.747382762887797502e-06
9.560917563716769113e-06
9.695051694183152280e-06
9.426613201094187960e-06
1.037792164783447277e-05
1.058149100235848426e-05
1.144259738615521538e-05
1.135810044762317587e-05
1.182855933405311807e-05
1.196660982337972960e-05
1.127995235550028271e-05
1.204746314685041874e-05
1.228425179161828280e-05
1.243479722537055101e-05
1.302652330309039203e-05
1.307233102073590186e-05
1.279510316879992453e-05
1.264016085665695622e-05
1.278785654999255980e-05
1.316762830754209708e-05
1.327742625114377343e-05
1.328563668071115402e-05
1.308529400334723380e-05
1.341928517303056338e-05
1.344593801542950820e-05
1.345291082985952899e-05
1.349118007091186953e-05
1.344966166432146003e-05
1.357026695099520789e-05
1.367013336955811342e-05
1.359767506670711944e-05
1.366866790777944124e-05
1.357589664882416859e-05
1.368961351689908872e-05
1.366798222320794303e-05
1.385843236238646855e-05
1.374537426001767583e-05
1.386025475690004014e-05
1.379673147408667604e-05
1.367312459179253353e-05
1.376169996473048902e-05
1.374121825519211012e-05
1.399982865903021120e-05
1.399021427080323012e-05
1.390025503637771875e-05
1.401787264934570661e-05
1.385306626698905899e-05
1.389859143531226099e-05
1.375021250598583626e-05
1.382186260279825426e-05
1.380167473748199444e-05
1.410589842475107610e-05
1.409617175863545181e-05
1.410345076141771615e-05
1.389653170263460881e-05
1.399944192062434436e-05
1.394289878174214621e-05
1.382831521238718801e-05
1.386461818509334006e-05
1.418618709235100367e-05
1.415922888144137695e-05
1.392756603897630977e-05
1.417700650363510058e-05
1.416545055794220668e-05
1.410940198988117121e-05
1.397723458388529297e-05
1.403545519927489557e-05
1.391408996114648907e-05
1.423394252193128115e-05
1.398559236832726794e-05
1.423950983952981361e-05
1.420151964170650414e-05
1.413302464989951425e-05
1.405403944231683708e-05
3.750973794179115892e-07
4.321754522136743996e-07
3.355184796206077172e-07
-8.618752913930398081e-08
-1.602687704540435180e-07
-1.114345875766478567e-07
2.760417807644149687e-07
2.267276799982495213e-07
4.544285735149024730e-08
1.041271634257754565e-07
1.623816976745883853e-07
3.288870513805821456e-07
4.699206439180430726e-07
4.078720924092218701e-07
-1.831664724065594352e-07
-3.407827062979988241e-08
-1.041787977261129068e-07
2.273597793264960871e-07
8.360571620189571917e-08
3.325229235954963800e-07
5.092146340681891895e-07
4.358358356481299139e-07
-1.523767605468588618e-07
2.496384717472647643e-07
-2.985180591987259490e-08
1.332602029170625691e-07
3.406982843038130321e-07
5.491401732144207771e-07
4.660704212461840205e-07
-1.107002533487433927e-07
2.148690140996389086e-07
5.440429226994915123e-08
3.370006617745702074e-07
6.024110194029214991e-07
4.959467799385516341e-07
-5.468876999261324440e-08
1.740288759072495511e-07
3.633107899624755363e-07
6.731607307254661716e-07
5.113606784483630920e-07
2.098864773325894594e-08
2.835296830360718642e-07
5.107715128572407987e-07
7.673028776848104702e-07
1.232106121796996273e-07
4.872937698965489365e-07
8.925729360432586219e-07
2.611346075542210615e-07
6.676710730461759717e-07
1.059302578195562117e-06
8.469211253975089299e-07
4.473300934751149043e-07
9.342388574061278561e-07
1.279589275561304755e-06
1.094974415846727742e-06
6.985138199841502263e-07
1.571240817076961022e-06
1.275089003444777743e-06
1.033309360555243637e-06
1.977421660651491283e-06
1.728823806427615723e-06
1.467204282163936640e-06
2.437301532821412734e-06
2.341709551480767413e-06
1.931947230714351690e-06
2.802618067193525073e-06
3.226908277538960108e-06
3.282625855694392110e-06
2.716637609809275092e-06
3.534883477976597561e-06
4.004732035893834288e-06
3.476008589306173584e-06
4.194436956180001952e-06
4.820258430114455765e-06
4.270801868282556897e-06
4.959765232939612395e-06
5.724425761296220494e-06
5.161485086202268026e-06
5.634368135602523260e-06
6.184079241079940624e-06
6.784842840132675221e-06
6.230767677277738800e-06
6.823413154220645980e-06
7.636628214182213659e-06
8.108641567061713418e-06
9.044526527231364250e-06
9.059694159515093801e-06
7.620141236828530549e-06
8.660398522636298407e-06
9.762434802411362977e-06
9.899602194194661052e-06
1.034446436174039279e-05
1.065053132653043094e-05
9.631313638676017986e-06
1.076939860446411411e-05
1.111119737981922268e-05
1.121761533870647325e-05
1.261241976873599992e-05
1.263420562739189363e-05
1.253103738684313220e-05
1.269036146240972576e-05
1.059489353559336599e-05
1.131811247540260719e-05
1.151456481262034966e-05
1.164673769764286039e-05
1.250451943868834882e-05
1.239399793634010869e-05
1.236932880708025668e-05
1.221171950509711596e-05
1.262269755121991642e-05
1.270012907905504517e-05
1.274476925639537275e-05
1.274814796348129809e-05
1.271046520500575516e-05
1.274621873422656736e-05
1.219882867853959392e-05
1.196930947303971892e-05
1.199446531839396167e-05
1.190527717161253744e-05
1.185405603911461290e-05
1.251823359657220989e-05
1.238810856241852952e-05
1.267775663993310412e-05
1.284134114148134705e-05
1.279273241494592954e-05
1.284451894897111748e-05
1.281154317398948344e-05
1.278381351359187497e-05
1.226063166972044258e-05
1.225097199355850604e-05
1.255612194558471979e-05
1.278325979391481106e-05
1.293759029344531895e-05
1.298047695412824386e-05
1.292500878827308007e-05
1.287910312226219414e-05
1.294847877262738742e-05
1.287540907329019326e-05
1.254520262277934671e-05
1.292464081958207749e-05
1.276318066383407492e-05
1.304902694662431245e-05
1.305404053087036631e-05
1.303319764011010064e-05
1.304436155102858309e-05
1.302364709634219186e-05
1.309332659135593687e-05
1.296251939060915583e-05
1.305493141013778214e-05
1.310726637623482280e-05
1.309990141750432774e-05
1.313302596026418579e-05
1.312864000548930312e-05
1.317291735091096462e-05
1.317460967901793009e-05
1.561099578390911767e-06
1.495407622336759148e-06
2.064084693773697385e-06
2.129160655910090297e-06
2.050808331450242652e-06
2.109511574233901094e-06
2.173839516173419865e-06
1.527697925218541904e-06
1.465069346212036208e-06
1.986068590724652055e-06
1.948423957496406445e-06
1.866988861790425962e-06
1.808193284742258037e-06
1.743266221516807063e-06
1.589918442213520487e-06
1.665095355757713044e-06
2.046138639518317953e-06
2.134927601770808611e-06
2.228268172008033757e-06
1.507799956122074006e-06
1.937966135359844574e-06
1.774920574082040255e-06
1.639812304678460378e-06
2.041795638139265066e-06
2.164783531506083217e-06
2.290095706018052588e-06
1.565519444498345376e-06
1.904310390327293023e-06
1.735787999051213890e-06
2.049118695880441778e-06
2.207742818395562004e-06
2.371043063364934697e-06
1.643752958973693246e-06
1.886166323822234109e-06
2.102119830710591925e-06
2.266293791215507880e-06
2.477561105936127734e-06
1.749553969844171184e-06
2.055045291690060682e-06
2.356270488828081735e-06
2.615666353040407311e-06
1.893194563838463312e-06
2.193940509998336494e-06
2.429683719419710463e-06
2.781088436983990891e-06
2.087651364196922992e-06
2.579499216223183174e-06
2.991335299997250737e-06
2.351152960008692329e-06
2.863888637813139754e-06
3.314506790147047938e-06
2.712154242067089118e-06
3.234596525278389144e-06
3.705983228966526750e-06
3.590977465269143344e-06
4.049611011823184283e-06
3.141835925919013717e-06
3.973888883294033712e-06
4.404974646937140209e-06
3.895615251547315392e-06
4.455233165476930429e-06
5.113705783772361241e-06
1.141549647143331730e-05
1.145024907692762709e-05
1.149651822596328769e-05
1.151135570532206327e-05
1.157284278002306486e-05
4.652000704433162173e-06
5.220390756792255279e-06
5.855717492242891815e-06
1.157340248565322041e-05
1.150536223581040587e-05
1.144946034287137980e-05
1.137835592385711059e-05
1.131695019491027728e-05
1.164282026836632733e-05
1.165127280201184317e-05
5.445281216593209178e-06
6.112805190718497104e-06
6.656913261726568227e-06
1.154772615607800666e-05
1.146976256262174442e-05
1.138183062886285611e-05
1.128059600480326713e-05
1.119384565757067003e-05
1.115278918846203649e-05
1.103205808098357231e-05
1.188461356052196601e-05
1.184082087991175412e-05
1.181734862580443229e-05
1.175826584089588674e-05
1.173755261458329094e-05
1.162646518652959984e-05
1.171327648985482638e-05
1.181402391223967159e-05
1.189742836625250517e-05
1.187560984057073628e-05
1.172985051730261024e-05
1.181782085266048199e-05
1.191546907636869369e-05
1.194998384484708312e-05
7.048069642870376440e-06
7.548518100888146055e-06
7.778911761895440841e-06
8.069274547201938660e-06
8.408180409445376491e-06
8.573063803067449456e-06
8.909929600498510901e-06
9.242032698328408663e-06
6.312038252470489677e-06
1.145672129396478915e-05
1.128990790090548369e-05
1.097055924478846190e-05
1.081944176985396879e-05
1.114981922163411736e-05
1.182064139419850384e-05
1.155401362694712336e-05
1.169192854772475710e-05
1.074409558759741525e-05
1.054412431095931719e-05
9.537982877915788756e-06
9.794337524869783126e-06
1.188979443734117567e-05
1.194073796980854363e-05
7.298227798336211198e-06
8.470834246285615480e-06
9.269549355471407221e-06
1.131772737015904658e-05
1.103160693900746177e-05
1.151767097182779652e-05
1.007795760966491131e-05
1.021390538146179864e-05
1.045293812198773361e-05
1.073430374299535784e-05
9.940644610735401623e-06
1.128146909399553298e-05
1.096150451540794501e-05
1.052802487411103930e-05
3.513803829968829030e-06
3.543219915680297631e-06
3.457356343288638182e-06
3.462788921187979537e-06
3.385392052054045137e-06
3.584320904948817668e-06
3.635813592812703712e-06
3.683924145949588543e-06
3.753793404334785284e-06
3.521407637509804073e-06
3.346424983761068786e-06
3.436150130609070439e-06
3.803547284460629311e-06
3.909278597779307756e-06
3.614427755277684991e-06
3.712784256632363363e-06
3.516479859254973028e-06
3.405558114906461147e-06
3.947303378218915308e-06
4.112126371625862514e-06
4.224250425564403884e-06
4.079106784624441672e-06
3.808841802111745328e-06
3.639035882886078358e-06
3.485797290928997634e-06
4.342486104766945901e-06
4.158991179407892728e-06
3.970488806609312075e-06
3.788400867245990104e-06
3.594622200894614517e-06
4.315536847097619654e-06
4.542459565772840368e-06
4.025603704772947989e-06
3.742312072857592381e-06
4.539338290818698510e-06
4.792867679044439220e-06
4.260041161669441900e-06
4.764426841370168568e-06
3.942613394802543648e-06
5.009686877335183870e-06
4.205317687818474060e-06
4.579720039345416561e-06
4.899509200691699572e-06
5.244295107067799966e-06
4.527308698671094722e-06
4.899823095279127533e-06
1.033727597434556191e-05
1.040638316251611806e-05
1.035980751608284920e-05
1.042504578798638120e-05
5.244229585136184871e-06
5.701985880914369761e-06
4.810912389216497295e-06
1.030364734657155616e-05
1.014514085325674366e-05
1.015295388339164572e-05
1.001319400503542405e-05
1.002670870257837324e-05
1.039917267197697031e-05
1.032675650229347059e-05
9.857488305545708063e-06
9.900263571673399653e-06
5.713816990933799026e-06
6.170663517566184523e-06
5.113171835172545718e-06
9.890332086731249173e-06
1.021702664730047092e-05
1.002691990073558402e-05
1.029864432820108460e-05
8.425047011581235891e-06
8.581525021081302398e-06
8.263688104109670663e-06
8.718991157625158468e-06
8.875195383502537916e-06
9.705834939232772384e-06
9.540154728347767843e-06
9.377168960467924542e-06
9.236205324093042351e-06
6.235574017284428731e-06
6.655385850736757696e-06
6.809436676193245517e-06
7.161594783651720272e-06
7.998217239677405592e-06
7.695368087064434652e-06
8.343919452390636036e-06
7.404034449474507531e-06
8.120252688481579206e-06
5.712328918517518077e-06
9.791801791685523495e-06
9.976988850876230533e-06
1.016214797310115769e-05
9.018626678337268970e-06
8.696874615220707603e-06
9.549930465495545307e-06
9.275675050380969053e-06
8.501312170187562872e-06
6.336716324084251998e-06
6.998960098739881715e-06
7.714233526974744807e-06
9.725857049984224195e-06
8.987956287781036905e-06
9.384822032279733269e-06
8.118732145614697646e-06
7.942105823591235985e-06
7.789874194607129433e-06
6.462918458777114854e-06
6.744579144730574731e-06
7.032190848794863373e-06
7.326973080332369878e-06
7.629870193377067067e-06
-1.216485310942904785e-06
-1.124948929103858896e-06
-1.259043720172025110e-06
-1.317831728443953060e-06
-1.393222099476042967e-06
-1.434442672068255586e-06
-1.527839356233929372e-06
-1.557460359248984279e-06
-1.666934343688309815e-06
-1.717616692090760707e-06
-1.811957227858341400e-06
-9.905530005850186204e-07
-1.039319794740983534e-06
-1.639881871216615284e-06
-1.894268259344644119e-06
-1.971534310168688137e-06
-2.179684941981173291e-07
-1.353995803099591801e-07
-2.828661211297151570e-07
-4.298803233857987209e-07
-3.341451734316380084e-07
-4.969172815047305904e-08
1.208089874689185638e-08
2.621619974143531696e-07
3.070367174822258931e-07
1.595303732391189656e-07
6.212382372064242388e-08
-9.155956297962256803e-07
-8.548578959210656456e-07
-7.802896929195739627e-07
-7.160686581783523507e-07
-6.317423053929867207e-07
-5.745615256256444265e-07
-4.814061743212007290e-07
3.874196581982445022e-07
4.545181617188842431e-07
5.225106387899983244e-07
6.028993480299023238e-07
-2.173612386279971990e-06
-2.025027445437181251e-06
-2.259104702779865362e-06
-2.385807312508288739e-06
-2.426728722228891803e-06
-2.567869239848685849e-06
6.662527401530054510e-07
7.525498673594737347e-07
1.415667754785238058e-06
1.519398438366760037e-06
1.363589256143117172e-06
2.060627135086935312e-06
2.156659793379975784e-06
1.995317797533358282e-06
1.886895434984360542e-06
1.835433589505504195e-06
1.749303649226579119e-06
1.676805109013092996e-06
1.615430223185887172e-06
3.607830689299855849e-06
3.685524460220691803e-06
3.539099305581662653e-06
3.432107121305229624e-06
3.399159095921288889e-06
2.263010313775827768e-06
2.319272827613239757e-06
8.190051585235768840e-07
9.032763936328146265e-07
1.268967733488582787e-06
1.208957838523261737e-06
1.055551463503052350e-06
1.126126228632825053e-06
9.719763071656295600e-07
3.727220557907838480e-06
3.840382541618409213e-06
3.306906707068364376e-06
3.256497608535057030e-06
2.571661541070904723e-06
2.646332433455783126e-06
2.483138629724945260e-06
2.397565203569886954e-06
3.848352855238589752e-06
4.004200635003721442e-06
3.159541271037822019e-06
3.109983470304666151e-06
2.959418192838747184e-06
3.006096290793687441e-06
2.859592879520650625e-06
2.804990790065191130e-06
2.713011082977908299e-06
4.254801108794785102e-06
4.362338269433567736e-06
4.177861156974671040e-06
4.397198452355333614e-06
4.560908324970786099e-06
5.063285079443220215e-06
5.214352219610553205e-06
4.997400825818402099e-06
4.872299735680131370e-06
4.774303015096896123e-06
4.614997232097437572e-06
5.265514744393474692e-06
5.427446159630723769e-06
5.454087434345659700e-06
1.032594895365795795e-05
1.044225350534122146e-05
1.030709192114404789e-05
8.803221397809967059e-06
8.619191723296238907e-06
8.820566244473985063e-06
9.001536042259890253e-06
1.014811649821247970e-05
1.015643594621525270e-05
1.046152757747365669e-05
1.056426528481215941e-05
9.023064980879507845e-06
9.201881881238464089e-06
9.211338836928149125e-06
9.405868915876149723e-06
1.003274427450595309e-05
9.988295858706670855e-06
9.635347732528806722e-06
9.801621463888803454e-06
9.606637209642739865e-06
1.056248082964832569e-05
1.068347348857609828e-05
9.383925885196591095e-06
1.068240568807825471e-05
1.080249943772613327e-05
1.092151379484113444e-05
1.080022514214273383e-05
1.115907346101812798e-05
1.104030092620839315e-05
1.103672378757004018e-05
1.091867037440967305e-05
1.127761992201912630e-05
1.115403879238610426e-05
2.749810397500509057e-07
1.127357181175264835e-05
1.139603830213178483e-05
1.139130107359171654e-05
1.151380219371505124e-05
1.366947139482511040e-06
1.150046253699839931e-05
1.163071787872745829e-05
2.857814082490944561e-06
1.165022333855772252e-05
1.174713027362028197e-05
4.149878337344842726e-06
1.174130040395052133e-05
1.186260537141029751e-05
1.183847164994250139e-05
1.197747281467928903e-05
1.198925867664016987e-05
1.209162228033948394e-05
1.208558401776269547e-05
1.220503389957690088e-05
1.219161464255728484e-05
1.231655915247303148e-05
1.228744252780382927e-05
1.242608413243801170e-05
1.253350118414041307e-05
1.239824334058617161e-05
1.263886913860429097e-05
1.251853386913025208e-05
1.264118478414415405e-05
1.274229574019364038e-05
1.274001130697377971e-05
1.284369312181941574e-05
1.282386809473692019e-05
1.294326811566668680e-05
1.304168725288851038e-05
1.295791359118330716e-05
1.305029718151014598e-05
1.313947102024266356e-05
1.314515378271908968e-05
1.323654871701030906e-05
1.323236900919436723e-05
1.333311043010221593e-05
1.332357767333192385e-05
1.342893138904785452e-05
1.340749688035951177e-05
1.352403078421337553e-05
1.349370956256341057e-05
1.361840739205902597e-05
1.357869923888931185e-05
1.371223739353341327e-05
1.367625572247159738e-05
1.380553034428218157e-05
1.477378268554418615e-05
1.494731367848073851e-05
1.483233291664973254e-05
1.377728775630221230e-05
1.389819239031334110e-05
1.465011542210030730e-05
1.469594214273461724e-05
1.449412672876545545e-05
1.456345415730066369e-05
1.399033138710427415e-05
1.386222386318840033e-05
1.395225760197433274e-05
1.408156336478811977e-05
1.445473440915504563e-05
1.442485373099846235e-05
1.407756679980590617e-05
1.417213558204286402e-05
1.433110037990287835e-05
1.435536329189625123e-05
1.422967913505309765e-05
1.426202299902696878e-05
1.415209346630142791e-05
-1.131456586164144766e-06
-1.739378486387677572e-06
-1.791652858746210639e-06
-1.803200344831030302e-06
-1.100658942967020072e-06
-1.045336455541414745e-06
-1.796385808756326354e-06
-1.881740242277881220e-06
-1.842395603347592429e-06
-1.924691696210019195e-06
-1.348917460858422294e-07
1.564484421210317580e-07
-9.683422717600183446e-07
-3.994496757035572449e-07
-1.019039807920692613e-06
-1.827640277175126998e-06
-1.899624146523626150e-06
-1.986606652348098941e-06
-1.691540033116616616e-07
-2.393421707215008195e-07
-3.109571183052001067e-07
-8.603804130566040833e-07
-9.434119494488056790e-07
-7.071379282396551800e-07
-5.360717278937674341e-07
-3.253979910364786454e-07
-4.526408929342225104e-07
-3.688760375610951407e-07
-9.767879213334855826e-07
5.129061677077500497e-07
6.018625900609594152e-07
1.519479362671248954e-06
-1.815487905693827011e-06
-2.544243342686984401e-06
-1.951641867728593621e-06
-2.132060305982933232e-06
-2.376861590247504576e-06
-1.912515268637089706e-06
-2.559168432128582820e-07
-8.478091915853469321e-07
-7.129641914800864249e-07
-5.720005651579140711e-07
-4.536478234297054588e-07
-2.966305369024539577e-07
-3.736345647283523323e-07
-9.290697253570543533e-07
1.484662222838642154e-06
1.425004357116321702e-06
2.111340991319010131e-06
2.175709476720675375e-06
1.988496390667286129e-06
3.516097279048359727e-06
3.381762778194001714e-06
2.201868303403598435e-06
5.377859238252998098e-07
5.894275912356103150e-07
6.546616401950120054e-07
7.243817346220332782e-07
1.328895996033449730e-06
-1.798304520664862935e-06
-2.515233968738182912e-06
-2.082160704946368648e-06
-2.297608507709733435e-06
-1.952286329805403599e-06
-6.327846854940814454e-07
-7.786245152287494398e-07
-5.011108641265075232e-07
-5.505490156314551115e-07
-3.818282687508522922e-07
-2.764621351181672281e-07
-8.689304500237732276e-07
1.400254160407271769e-06
1.323400174394171759e-06
1.365184830800545553e-06
1.291081183702355744e-06
3.315462043192431820e-06
3.284870725457259820e-06
2.280067461160212056e-06
6.122619610573784595e-07
7.338211244506745107e-07
8.702730602503584343e-07
1.218365188328905843e-06
1.048833927176481809e-06
1.237847819603966003e-06
1.309565140806112249e-06
-1.786415208619147692e-06
-2.478754169126572947e-06
-2.191723174912200394e-06
-1.945453046203517855e-06
-6.812135798832077749e-07
-5.350003448309989743e-07
-4.157860963726477702e-07
-2.595482787958101304e-07
-8.023202861255870661e-07
1.398661621508716404e-06
3.203801645217413525e-06
3.206005420317211359e-06
3.247661735707233600e-06
2.632239251866717305e-06
2.505809598596369733e-06
2.370603669477389761e-06
6.796790760231836544e-07
8.509345500802512348e-07
9.818569127161767864e-07
1.124186578076980456e-06
1.238957117802440576e-06
1.321009125554993454e-06
-1.788675507089058427e-06
-2.432855637814738060e-06
-2.090464663632624312e-06
-6.027261947335560581e-07
-4.234411601508746313e-07
-2.412407382598151658e-07
-7.111584039289182169e-07
1.434134830568774037e-06
3.298295035963393387e-06
3.061705130670074663e-06
3.131347849866199844e-06
3.154212106728637953e-06
3.213215148979200049e-06
2.918727303144333721e-06
2.755058077624760028e-06
2.609292299702560323e-06
2.453098177362757021e-06
7.854473396908951465e-07
1.013207390727030203e-06
1.202439370124471495e-06
1.338451833229185149e-06
-1.763616810664106158e-06
-2.375390395364883312e-06
-1.944546095124948161e-06
-4.636421278241310037e-07
-2.314807729147078623e-07
-5.829598150410825712e-07
1.450231425326720160e-06
3.234737099614093518e-06
3.341823232929509731e-06
3.025800371636142574e-06
3.126742590408100239e-06
3.155875872439212280e-06
2.799225127159176560e-06
2.575733776546552545e-06
9.210951993496632582e-07
1.226747634142334824e-06
-2.303282512895389763e-06
-1.748612924343074977e-06
-2.269376456179177080e-07
-4.583941391820161006e-07
1.474463021071731444e-06
3.258421668054799054e-06
3.400895924401139508e-06
2.990560484525128261e-06
3.130865998987323273e-06
2.736565119052155606e-06
5.133387432029891785e-06
4.870853443573731857e-06
1.059994510358200710e-06
1.307005678323138828e-06
-2.212576734330499857e-06
-1.740265268920189375e-06
-1.002569804870658907e-07
-3.471239551967329320e-07
1.537891759356743586e-06
3.242465393730537132e-06
3.481032438854193274e-06
2.956050020916173623e-06
5.904744333162788053e-06
5.623925516448106132e-06
5.771482961666611597e-06
5.292147286668561748e-06
5.471344770394449705e-06
5.076175628704405191e-06
1.236148835056049994e-06
-1.643195529576728618e-06
-2.098826114555573774e-06
6.000584042902992298e-06
8.478418308470174361e-06
8.319295591407619263e-06
8.161489544937065662e-06
7.990833045312840734e-06
7.820978473277919455e-06
7.678364458386188228e-06
-3.875123556459550813e-08
1.563463487709669345e-06
3.615862069917976954e-06
3.194741826070146172e-06
5.803491609569706687e-06
5.598412469064137194e-06
5.912654352678916130e-06
5.358108006412185741e-06
3.863388672593879920e-06
1.566154916636437551e-06
-1.607892489881075687e-06
-1.956112559487206710e-06
1.038886547997034273e-05
1.024160052572460579e-05
6.191533724509954357e-06
6.491191987164852564e-06
6.811322564466411511e-06
7.139842196685131903e-06
8.382435387523391114e-06
8.055939400568508198e-06
8.211636240529922905e-06
7.439973496786439087e-06
7.861270800288188958e-06
7.673649838770358938e-06
8.645365256936363179e-08
1.824313546898788626e-06
3.470698940589507445e-06
5.634434758137169241e-06
5.933803320071038134e-06
4.133697233481122693e-06
3.851895689283574190e-06
1.844637704528088265e-06
-1.347547968760888592e-06
-1.779464518888261328e-06
1.046642179377162672e-05
8.632314377032888046e-06
8.850820329280546182e-06
6.161400510244625173e-06
6.575733616494889550e-06
8.433662874563103306e-06
7.043710739839131077e-06
8.058557686552375856e-06
7.567283442834646177e-06
2.700872414777290729e-07
4.336531863682523872e-06
4.144739868450655078e-06
2.197003982344716719e-06
4.888385539893013096e-07
-1.576952623727803830e-06
-7.636178564477239965e-07
-1.371488161943123389e-06
-4.507155587551121729e-07
-1.175166333515592707e-06
-1.517737326625546509e-07
-1.016048505063019436e-06
-7.302439868402417676e-08
-2.165290894768807386e-07
4.029186788197684187e-07
1.050262582233646171e-05
1.048271203789870700e-05
8.749704985480951272e-06
9.052321898169925980e-06
4.686125752823014630e-06
4.463845215122469687e-06
2.445608569934157053e-06
8.094407547570675227e-07
-8.556173887185934065e-07
2.568416894689061648e-07
7.043876455735327353e-07
1.057637677996386909e-05
1.046043314576101686e-05
1.053474350350241003e-05
1.036790575528058993e-05
1.043537794599969285e-05
5.033348796114941659e-06
3.063775227463223922e-06
1.124185922180271204e-06
1.118081979854416212e-06
1.654932729186199080e-06
2.102295305153809736e-06
1.065801857332127176e-05
1.054249222718915361e-05
1.048168521659414840e-05
1.041567256074985588e-05
1.034013471698735120e-05
1.024447043836762716e-05
1.103769305715856109e-05
1.127515697260064148e-05
7.939471518879515161e-06
8.294260216775143607e-06
3.823651161942887106e-06
5.739365564614367896e-06
4.070705198462316781e-06
1.649118058293708339e-06
2.269816846662948308e-06
2.577207055856752165e-06
2.853776582915688426e-06
1.134021504192296363e-05
1.142813879347842741e-05
1.113585675310038072e-05
1.121428936718800702e-05
1.078501447678936321e-05
1.091028978877524540e-05
1.065784658003668397e-05
1.056887622022125037e-05
1.045644517203855135e-05
1.036476464134521698e-05
1.024612852497050723e-05
9.877743987948659851e-06
1.008635685765305498e-05
1.095432920631301483e-05
8.673506529430556500e-06
1.156619366336580631e-05
6.490296543015865128e-06
7.321627601695785880e-06
7.877419213104248880e-06
8.315887846281939610e-06
4.646706310427497672e-06
5.001750465378129382e-06
2.395595402957807527e-06
2.827661072546053634e-06
3.431480278349804618e-06
1.106784915011672869e-05
1.073282684373741422e-05
1.054174341443956049e-05
9.637797719306380454e-06
9.883567753541075258e-06
1.036592741647125066e-05
1.010081711264232896e-05
1.086469480980381271e-05
9.170435374751392869e-06
8.786726438435726939e-06
5.519414450120166604e-06
5.698037722953510656e-06
3.454637001646588738e-06
3.456761809278999460e-06
3.636551138598709609e-06
3.999980127068055966e-06