<?xml version="1.0" encoding="UTF-8"?>
<VTKFile type="UnstructuredGrid" version="0.1" byte_order="LittleEndian">
<UnstructuredGrid>
<Piece NumberOfPoints="4497" NumberOfCells="8293">
<PointData>
<DataArray type="Float64" Name="Current_density_norm_@_t" Format="ascii">
3.682846497336877416e-06
4.920086153359778701e-06
3.184462046233748832e-06
2.429264971965373895e-06
2.243019276000944016e-06
1.415387925215377570e-06
9.922316842897491718e-07
5.436992527056506724e-07
-7.015958243057381054e-07
1.770834004546384692e-05
1.775192442482190138e-05
1.780122881742240829e-05
1.642491482620319162e-05
1.646370465729097432e-05
1.652138052201043648e-05
1.491815527489649535e-05
1.495782296898700901e-05
1.503712467355612840e-05
4.864014072295379603e-06
4.826480385086431001e-06
4.955605597152175728e-06
8.047775471252012537e-06
7.989546130418179062e-06
7.838710560900180233e-06
8.130951460448360217e-06
8.300226575112918076e-06
1.058742147420479078e-05
1.058608697436581631e-05
1.076961252436376623e-05
1.077412086003931479e-05
1.099712631271476353e-05
1.040886648770035783e-05
1.038743336394029621e-05
9.987915432659195540e-06
9.882380531141639395e-06
1.014554697599491170e-05
9.721645520327011652e-06
9.617645483346948048e-06
9.398345762619384437e-06
9.352913651105407666e-06
9.172561658090140082e-06
9.091033922996752682e-06
7.725458023837454555e-06
7.643865339250113095e-06
8.934542878732630635e-06
8.831617410079758014e-06
8.659382775200488816e-06
8.569086662237052274e-06
8.427698978414532106e-06
7.577350141150747249e-06
7.400078264030591041e-06
1.019289021544967374e-05
3.472626658622583974e-06
1.805507815330407211e-06
1.812918702460602660e-06
8.794271337172123996e-07
0.000000000000000000e+00
-2.590826055729075565e-07
-4.962882167649601592e-07
1.742188624831508619e-05
1.741137559691319708e-05
1.749782302950903207e-05
1.735913726666815974e-05
1.772526155512935879e-05
1.779217800453342061e-05
1.730613185024293616e-05
1.747053134949495180e-05
1.757025574049880172e-05
1.737343622553251096e-05
1.728317824626536022e-05
1.769546395817401290e-05
1.754243530657732317e-05
1.766119723261520480e-05
1.763519518359294439e-05
1.762838390423147856e-05
1.773172683924811421e-05
1.720941296162019227e-05
1.720189812004561565e-05
1.741303099173483100e-05
1.730034057011092466e-05
1.762151081841302664e-05
1.749050095472900012e-05
1.752228304008838898e-05
1.720546142041221968e-05
1.763177918309887573e-05
1.711338657520818844e-05
1.710032534353791983e-05
1.730308291896588655e-05
1.749662223244682479e-05
1.738889325788516729e-05
1.713888465836792101e-05
1.749961727678621398e-05
1.699257693764516576e-05
1.698063045755414033e-05
1.721003463179359398e-05
1.733312631342833626e-05
1.701645900713938658e-05
1.732367358341274416e-05
1.683556444631292891e-05
1.680917378278340543e-05
1.707974092277773139e-05
1.686014950823855769e-05
1.708917258149515446e-05
1.663157421046920922e-05
1.662912369556079578e-05
1.673819198642107918e-05
1.677695646677201198e-05
1.636629528017547911e-05
1.641634125551907545e-05
1.632670637362858827e-05
1.636103718298330373e-05
1.602158407429488487e-05
1.590634799057172552e-05
1.580706865581647807e-05
1.557353208265566043e-05
1.532891964713146429e-05
1.506906324868034867e-05
1.499134273809824033e-05
1.462840658467945568e-05
1.411352656038232129e-05
1.403280738437330375e-05
1.423473220165860420e-05
1.326894999880761587e-05
1.299042622828561615e-05
1.180611938365750428e-05
1.216667852605307100e-05
1.098835505290962160e-05
1.055782045683896373e-05
9.102016633247098928e-06
9.135311836554354018e-06
9.677314714224328508e-06
7.884323051648143600e-06
7.614615294813109817e-06
6.748833705456105486e-06
6.501968488466372743e-06
5.754480252789723191e-06
5.939360175790429441e-06
5.333027893887002609e-06
5.035630711827905070e-06
8.255407253296254569e-06
3.772511908352329161e-06
4.026806036445563482e-06
3.239099569890202470e-06
6.568685999487493749e-06
5.983908208146683790e-06
4.600710869429403555e-06
5.312910400030657532e-06
3.965680766352637496e-06
3.268056167725955538e-06
2.559067395162171001e-06
5.349796133422654468e-06
4.683351809616351058e-06
4.029987626395598441e-06
3.434224636864052048e-06
2.725091240839043259e-06
1.910529681434941416e-06
4.372839065949927568e-06
3.663618288342883400e-06
2.952834077705196193e-06
2.321405918359834838e-06
1.568321753487816555e-06
3.520076820723149043e-06
2.524548593005186928e-06
1.902786236763179926e-06
1.212508936328724224e-06
2.709806965145231044e-06
1.740510875999438590e-06
8.291814454861286906e-07
1.388088571744721150e-06
1.859367878575184590e-06
9.821706844981536876e-07
1.323435679647616238e-06
3.053783867857914268e-07
-1.828173379866653426e-08
8.291907031471426308e-07
1.193337199631576585e-07
5.131019202008446262e-07
-3.022704070676579877e-07
-5.717764536592595068e-07
2.173917259214356600e-07
-4.743849009177245472e-07
-4.176425207056598749e-08
-5.557279644368917989e-07
-2.447447000677299283e-07
-8.272826061847365198e-07
-1.044733345035364972e-06
-7.205700198987130900e-07
-4.009516196336628037e-07
-8.035424853362744843e-07
-6.135712066654946110e-07
-5.211154544385016748e-07
-1.212624295779428473e-06
-8.647150345648308599e-07
-1.109946769183243603e-06
-9.195629230593726938e-07
-6.847152624245982121e-07
-1.338534834613086598e-06
-1.433254035328729806e-06
-9.040194598771260302e-07
-1.229291003948791148e-06
-1.091662598791518537e-06
-7.395542573529857990e-07
-9.053634854306402766e-07
-1.504258428249684680e-06
-1.076502661243898904e-06
-1.300011193463401235e-06
-7.816941247229577990e-07
-1.044998792830235449e-06
-9.082858457399879456e-07
-1.557602465636317480e-06
-1.211766536781542621e-06
-1.415930212399192416e-06
-1.149153849425457585e-06
-8.140379643815945119e-07
-1.020564478992750691e-06
-9.125666794946268965e-07
-1.597612744067837411e-06
-1.486938609728466846e-06
-1.318541507414103463e-06
-1.427131564048965284e-06
-1.106833574855989646e-06
-1.215742748620408139e-06
-8.398233122090831569e-07
-1.001292483327215599e-06
-9.209472310643624987e-07
-1.627733251505800767e-06
-1.541300608871720198e-06
-1.467211870827725865e-06
-1.071113488131163489e-06
-1.321490988543560412e-06
-1.183281286705693057e-06
-8.746773464111202016e-07
-9.757234344104881747e-07
-1.650500279276172944e-06
-1.564501902512674663e-06
-1.037315030714900781e-06
-1.535246136321851131e-06
-1.480077369390713416e-06
-1.387280553496884257e-06
-1.129994615804903892e-06
-1.255628642599730480e-06
-9.531721175785633213e-07
-1.628741466344609037e-06
-1.056350555974962935e-06
-1.558349964307834170e-06
-1.458075226614851248e-06
-1.330732499934576414e-06
-1.183750317073850772e-06
1.605187731324149986e-05
1.605301321120260270e-05
1.616418714722173060e-05
1.644605368158076134e-05
1.652116293124133048e-05
1.642800043004885195e-05
1.613980584678391064e-05
1.625854683127533526e-05
1.634295967176469032e-05
1.636493207887249678e-05
1.623782789470534674e-05
1.603635658666328033e-05
1.596241811803357779e-05
1.595241554044216981e-05
1.646830607884423834e-05
1.635248433168212976e-05
1.637210508495598398e-05
1.608978950860904394e-05
1.622295085261791345e-05
1.595586467931086477e-05
1.586821674285078014e-05
1.584494295405895124e-05
1.635811107795707902e-05
1.597634196046437776e-05
1.623444847884484150e-05
1.607826351755090047e-05
1.584896855673900075e-05
1.574018089815473051e-05
1.570612666824100886e-05
1.620963509875847887e-05
1.590916792292052277e-05
1.603732206329473004e-05
1.573001271010134315e-05
1.557029828825030285e-05
1.553774583663371548e-05
1.600903202304927717e-05
1.578389833947301516e-05
1.557742956937409055e-05
1.534431381908051137e-05
1.534739103713872558e-05
1.573836985281736251e-05
1.549154648884190914e-05
1.513041410855347584e-05
1.504367239236331982e-05
1.537314575763597870e-05
1.488393197857832919e-05
1.464367765140632298e-05
1.488018881315963292e-05
1.445863058386238841e-05
1.411150409057877732e-05
1.396931231594928435e-05
1.421493302672554492e-05
1.355217346155476995e-05
1.340823504446318586e-05
1.307636463680084584e-05
1.331698167509246493e-05
1.247708291177667489e-05
1.248591938276773496e-05
1.212057505285742792e-05
1.143868234443214495e-05
1.118516667131357836e-05
1.091868603713376791e-05
1.026269852379721794e-05
9.640389491028011540e-06
9.631005397650814991e-06
8.716689751895359247e-06
8.631364965274921408e-06
7.876107797108377950e-06
7.917298116736665333e-06
7.225482691991314528e-06
7.330035371301183529e-06
6.604063860283652478e-06
6.399917632336743801e-06
6.225924209581843041e-06
5.516232883349517742e-06
5.474537998477063185e-06
5.236341741984977198e-06
4.552293376375248433e-06
4.675616981645460542e-06
4.349824768227023789e-06
4.299999952273822196e-06
3.639359773306496248e-06
3.807192039644975115e-06
3.206960974083934670e-06
3.358650182767718946e-06
2.408647862932386219e-06
2.817071619611067947e-06
2.706663972138987969e-06
2.162282751968790370e-06
2.051061051999203262e-06
2.338868762714190799e-06
1.817814280308243665e-06
2.000911509348103340e-06
1.654029102761774495e-06
1.583452001339008857e-06
1.477290031765580746e-06
1.745600691427712601e-06
1.034682388369570300e-06
1.108049823597171164e-06
1.154422274415420136e-06
1.012339030729889931e-06
1.269829228014727191e-06
9.815298638547293610e-07
1.261502042009989175e-06
1.552367365645509245e-06
1.061630137705180848e-06
1.216112399219900628e-06
1.090980242057225887e-06
1.298064764145111131e-06
9.155489782976748676e-07
9.281408408043725312e-07
7.919917703661526513e-07
9.377617950254162302e-07
1.061604786314661226e-06
9.888428272234500347e-07
1.130461889235989887e-06
1.407188795875446627e-06
1.186493864272198451e-06
1.028882647147086271e-06
7.679904666906562985e-07
9.040084675522947613e-07
9.351117044436994168e-07
7.406377056410421906e-07
6.194690848542715189e-07
8.487680092307323308e-07
7.307868603243873999e-07
9.109200615648522487e-07
1.017010582575037346e-06
8.651123266897368271e-07
6.096075315130888920e-07
6.770673088428742696e-07
5.357292923215368496e-07
4.333419109807620139e-07
4.921748469865534041e-07
6.168279149509486452e-07
7.971044446765853390e-07
6.706838662360137821e-07
8.992987011269637393e-07
4.923832868574517447e-07
3.410681823252140573e-07
4.054933633565868252e-07
4.552677615200434523e-07
4.103633229926727022e-07
3.753229128490867146e-07
2.934124687499455386e-07
5.350950204915775905e-07
4.400671918206202601e-07
7.506830786688232414e-07
5.931156574416317838e-07
3.839638215955793539e-07
3.447428813907619979e-07
2.579870762615714275e-07
4.679401376038307437e-07
3.651647483521962335e-07
2.883959598821694826e-07
1.496450608763748991e-05
1.504652772291319240e-05
1.451882661081186200e-05
1.450112613343376112e-05
1.459396892846630889e-05
1.444792962366699840e-05
1.440111696545721026e-05
1.495475067176061510e-05
1.500211841723503058e-05
1.458338065147600309e-05
1.469093147331943937e-05
1.468033940652986726e-05
1.482367870656443363e-05
1.480323882092373410e-05
1.487467480487842033e-05
1.481321084102077491e-05
1.446994838088491893e-05
1.436410367988355335e-05
1.427956198353257566e-05
1.488468082787352813e-05
1.452834419078021040e-05
1.465393294888421524e-05
1.475079595919680867e-05
1.437943274116899323e-05
1.424366963338857716e-05
1.412748849764675279e-05
1.472541074937544608e-05
1.444079455273136934e-05
1.455797538979040686e-05
1.424877729601128128e-05
1.407804866455126012e-05
1.392744565423204771e-05
1.450967426528904523e-05
1.426704256901107463e-05
1.407179704048788161e-05
1.385051941292039225e-05
1.366476347706024902e-05
1.421719507684132600e-05
1.389841530163123448e-05
1.355437548443555937e-05
1.332457421494797654e-05
1.382122858250520734e-05
1.354136036148681033e-05
1.321047222937667633e-05
1.291633194542951056e-05
1.328462567493081763e-05
1.273752094042750236e-05
1.239791433439118441e-05
1.255767658476911506e-05
1.207192164008614508e-05
1.171711945757145393e-05
1.172919827852957535e-05
1.129204117081175456e-05
1.089223566128652939e-05
1.069458334671260586e-05
1.027316929024100157e-05
1.074322333055323749e-05
9.911165981782768791e-06
9.632931725469860522e-06
9.300113851081847591e-06
8.989132165836781881e-06
8.540917321247189076e-06
3.151115938340941982e-06
3.073901414174496156e-06
3.098059099643102992e-06
3.007088538957475991e-06
3.002563399129624585e-06
8.091070125105125543e-06
7.838233770340689437e-06
7.563360103180883132e-06
2.907947365933370499e-06
2.944029255055340927e-06
3.010184802254796961e-06
3.105174646439418746e-06
3.215675008595351033e-06
2.893209919320860079e-06
2.783075071419479062e-06
7.033255611490879399e-06
6.756053709519444753e-06
6.662196168384065070e-06
2.838765886243892080e-06
2.932278129601660670e-06
2.998764135506181818e-06
3.142169025656131138e-06
3.288551931752172417e-06
3.186310926566368077e-06
3.384229096564341015e-06
2.376192698054009141e-06
2.453784864861340454e-06
2.407025501325643577e-06
2.532195893536442384e-06
2.642942566856969668e-06
2.670884636523318852e-06
2.478313490134842638e-06
2.540155021481650933e-06
2.403957969912781000e-06
2.461935873779669363e-06
2.757243839279426787e-06
2.619741890649316616e-06
2.280464732599060650e-06
2.319836515487000544e-06
5.841673959373524158e-06
5.806378551335983899e-06
5.283202620221834814e-06
5.379824053240203766e-06
4.835484528830489870e-06
4.967606259325385622e-06
4.394608155208533020e-06
4.501173929614867963e-06
6.070276313662527232e-06
2.833103590264717837e-06
3.000147195630922308e-06
3.253053314896389643e-06
3.509916745976825629e-06
3.049800907373066358e-06
2.330518749167821051e-06
2.603765151287265150e-06
2.398108081727416594e-06
3.347050581016315430e-06
3.672823174553400302e-06
3.949680402861528556e-06
4.116312380605231612e-06
2.507430987384862741e-06
2.403062886298155769e-06
5.158029251342894939e-06
4.255950906346796459e-06
3.746622470629538849e-06
2.790767476054056582e-06
2.982012927144134073e-06
2.489798651732716266e-06
3.619496948548296892e-06
3.868226936075596803e-06
3.454208881596385975e-06
3.154298253553038754e-06
3.318636718269120025e-06
2.613903686457030713e-06
2.782112047106553552e-06
3.010004596976246264e-06
1.308876846689237177e-05
1.311323325726435381e-05
1.318281868711873363e-05
1.311595317215132100e-05
1.320358836267243237e-05
1.300887574660292904e-05
1.301657155331230323e-05
1.289010902083285674e-05
1.289316507662696576e-05
1.302225308554453270e-05
1.316977789806677814e-05
1.308246021055098728e-05
1.274449704562016607e-05
1.273077737197000976e-05
1.289490835652060192e-05
1.277962767258872349e-05
1.294232862181408602e-05
1.304585432397216969e-05
1.257014730601832345e-05
1.251865962845124047e-05
1.232930649701773434e-05
1.240776256851935886e-05
1.261632195085910912e-05
1.274738112976867199e-05
1.287768721517109670e-05
1.212909202584987371e-05
1.221674365688037834e-05
1.240243068773213894e-05
1.247865865644519078e-05
1.264944856636354120e-05
1.190233438292680646e-05
1.176601989709033030e-05
1.212926102268740908e-05
1.233978236486748961e-05
1.148845966166870910e-05
1.131180827845590068e-05
1.164561893181966457e-05
1.115334554108618172e-05
1.191945314791720407e-05
1.095146279993984609e-05
1.143139636259809725e-05
1.113332224749204706e-05
1.088281389500844695e-05
1.056145909449829897e-05
1.083290668656389946e-05
1.061485058442036731e-05
4.780118005239927344e-06
4.723816009184553588e-06
4.722051091528241723e-06
4.634205823841071614e-06
1.013676024414861900e-05
9.865466820213435523e-06
1.036534823093940648e-05
4.775067534061075731e-06
5.117112673227348105e-06
4.979974806535163093e-06
5.304154533230254152e-06
5.149025104697533926e-06
4.584311725552544537e-06
4.697103567919761964e-06
5.524763896612091768e-06
5.329725069771112716e-06
9.459065583086659069e-06
9.213255231015628042e-06
9.867222517692718361e-06
5.220127075630359659e-06
4.812758700909090399e-06
4.988685639099686760e-06
4.654762897045407186e-06
6.521966579140349527e-06
6.603189087811014201e-06
6.885731574981497273e-06
6.317630798480787331e-06
6.342104375870064734e-06
5.459824612800361151e-06
5.801988457862505324e-06
5.725018717341768748e-06
6.048827083284348637e-06
8.742896053870957975e-06
8.596225773000391502e-06
8.040924779848577676e-06
8.006928866995426179e-06
6.810459699411163218e-06
7.438808565858718911e-06
6.341939818302561464e-06
7.401729981072826221e-06
6.336779952098636305e-06
8.992119509986682628e-06
5.173272831906179035e-06
4.879908645920543954e-06
4.750272221424034006e-06
5.967086949730908960e-06
6.111382983144875930e-06
5.384809553960697061e-06
5.600061958275011516e-06
5.995070782887730861e-06
8.184599908433432309e-06
7.426031766149552096e-06
6.700904956977441565e-06
5.055938943365393575e-06
5.609269151314856789e-06
5.294541780678270341e-06
7.874866291163389682e-06
8.055461460398034076e-06
8.218923397065904511e-06
9.811646867461340808e-06
9.442133632425041780e-06
9.082928058580104730e-06
8.732935490637457995e-06
8.390826230739473161e-06
1.753795313875559965e-05
1.753995535669060718e-05
1.764795786979584993e-05
1.762029795104829821e-05
1.775493186318312779e-05
1.771280366929051252e-05
1.786130275018666617e-05
1.780901475095513850e-05
1.797062236410626088e-05
1.792633677668480094e-05
1.808355922477710134e-05
1.743128747206073963e-05
1.737148463000389294e-05
1.784955223647352119e-05
1.804863857723906144e-05
1.820663037772939433e-05
1.670719624831045689e-05
1.671882703196203655e-05
1.684408798208910621e-05
1.696819953710836085e-05
1.678090089106830016e-05
1.656527712806766064e-05
1.659254205349646204e-05
1.629808486826542246e-05
1.633699762021603816e-05
1.646523738637192138e-05
1.647181319876092550e-05
1.727667159752344889e-05
1.732035574552554677e-05
1.715804264241673532e-05
1.720642183446381780e-05
1.703619008991841282e-05
1.708894320604213249e-05
1.691177571581616761e-05
1.618411945230783340e-05
1.620769631959033172e-05
1.604474765788958647e-05
1.607661302374558283e-05
1.836041159180802011e-05
1.808439264905001130e-05
1.829969659378639907e-05
1.852007454920681309e-05
1.844454837680671027e-05
1.865557551767859173e-05
1.592634130733862631e-05
1.594341077708797297e-05
1.523775079732801537e-05
1.524383076962838979e-05
1.538843224173125400e-05
1.466619124316194674e-05
1.464174321490263663e-05
1.479591499330959451e-05
1.481812894283634404e-05
1.494773719974200086e-05
1.495052793799709527e-05
1.509703851321332767e-05
1.507133850635117620e-05
1.311741421016485512e-05
1.311844571594235165e-05
1.326898653557611994e-05
1.329989479209762910e-05
1.341224791704170299e-05
1.446195574574000744e-05
1.448503402022948703e-05
1.577217710853924396e-05
1.580786197305542211e-05
1.536923210514553641e-05
1.553055235733138119e-05
1.567038070910407085e-05
1.548688871102399235e-05
1.562244118696257738e-05
1.299134271208989768e-05
1.295774983894006447e-05
1.340225395640443689e-05
1.355715994976656891e-05
1.413061983909881692e-05
1.416631504336299580e-05
1.432571378027123977e-05
1.430480272393278112e-05
1.286849813429350446e-05
1.278628946224821705e-05
1.354884718427989171e-05
1.370499929920897506e-05
1.385570654364833414e-05
1.369115394683778918e-05
1.383686317609618638e-05
1.400955319552739514e-05
1.398720721143816135e-05
1.241959639672550713e-05
1.240745469209545953e-05
1.260366751405019837e-05
1.223860709055669304e-05
1.219465818365103623e-05
1.150504994089433493e-05
1.147961450202356578e-05
1.171969879298813557e-05
1.172336761621608627e-05
1.196343567219885909e-05
1.191382141323365132e-05
1.127612335607325219e-05
1.124177282567306983e-05
1.104909559979656464e-05
4.938441973680890524e-06
4.872552878008393359e-06
5.066520123524084640e-06
7.132160871705447285e-06
7.176040817297376890e-06
6.923655205282910186e-06
6.868920414725759151e-06
5.197922653190190808e-06
5.281088342996319530e-06
4.739942075928614483e-06
4.696156070446999744e-06
6.662032259809001315e-06
6.600305017893168320e-06
6.439186382158767063e-06
6.323823846407935956e-06
5.365250525161297204e-06
5.518285307129943668e-06
5.868415531288287786e-06
5.778933904947600335e-06
6.048965635104045275e-06
4.577956884871068274e-06
4.522844116802366009e-06
6.134397486324488652e-06
4.404836514092871077e-06
4.348398923804642506e-06
4.172983833774335302e-06
4.221672394943042629e-06
3.818917530560426472e-06
3.996418176216135116e-06
3.868996072364781384e-06
4.039293349638069846e-06
3.640305620094590880e-06
3.693835024760417154e-06
4.740927026824348764e-06
3.518589368032690436e-06
3.460899322956282466e-06
3.337083393374609633e-06
3.281197894178680128e-06
3.651494172063493731e-06
3.192035856631976937e-06
3.101153114455686804e-06
1.830704163626471565e-06
2.970089203433111302e-06
2.921123736355739856e-06
1.406666362897452763e-07
2.827260446134625620e-06
2.740689765023385634e-06
2.677368947660225009e-06
2.560225633458983210e-06
2.421551641967437038e-06
2.379607540044938362e-06
2.267254808642758935e-06
2.198974344602642486e-06
2.095451360817651330e-06
2.019664353767680448e-06
1.925188712790070335e-06
1.842559640674088375e-06
1.667500612157165077e-06
1.736654883713749515e-06
1.494466108516415796e-06
1.555443482476629187e-06
1.382357448371136279e-06
1.323543838365337279e-06
1.219419002375614884e-06
1.154586819636197625e-06
1.079017845694646216e-06
9.876915985129522459e-07
8.214052587951340724e-07
8.555436957073101045e-07
7.027772291922448780e-07
6.551040781115657330e-07
5.407487330280895494e-07
4.887428215895953720e-07
3.767211404268115977e-07
3.225084842476086421e-07
2.289302657731213098e-07
1.561986501616421119e-07
7.122268349191148909e-08
-1.014183161412422643e-08
-9.090124417229847857e-08
-1.767571600696940534e-07
-2.572698874339347544e-07
-3.435146063442536874e-07
-4.257576774092599689e-07
-5.104157891411951098e-07
-2.496730804111428556e-06
-2.666058898386578596e-06
-2.438609906855965730e-06
-5.983067151437802003e-07
-6.774950410561065981e-07
-2.294437066342496920e-06
-2.171998456637565119e-06
-2.022271596868214682e-06
-1.916151031445006014e-06
-8.445791856036631410e-07
-7.626188232157692565e-07
-8.994265273194800779e-07
-1.011797690259485240e-06
-1.708860137090776082e-06
-1.830100369084356459e-06
-1.121336379514840709e-06
-1.178895776177764877e-06
-1.595209660437968006e-06
-1.520956232926429553e-06
-1.399955419057505387e-06
-1.346075629022006889e-06
-1.261242375140170370e-06
1.744383694258677035e-05
1.787877609320796970e-05
1.796425605175878146e-05
1.791116132707125467e-05
1.736796185362886097e-05
1.729920782827834130e-05
1.784474769126218285e-05
1.795633453542291841e-05
1.783415506007338217e-05
1.792861667845036520e-05
1.661983401993477746e-05
1.637915331853120410e-05
1.724286378420074388e-05
1.674878891684394432e-05
1.721898651802689268e-05
1.773060740262565461e-05
1.784161010625872750e-05
1.793288107389110590e-05
1.660622864498524211e-05
1.664803413088578431e-05
1.668416587883761093e-05
1.713516837077087886e-05
1.715282780083109810e-05
1.697368803827621641e-05
1.685352553183555062e-05
1.664671421614695440e-05
1.670834795484385898e-05
1.664852184639826110e-05
1.710381445582367777e-05
1.597133095815328474e-05
1.589335488410225337e-05
1.514234223406351683e-05
1.762770058504140182e-05
1.848363669670550948e-05
1.779156822481445011e-05
1.801822311631633898e-05
1.826349786914456346e-05
1.763735441822626742e-05
1.659690889381699148e-05
1.700660237959713726e-05
1.685787260573437209e-05
1.676030961488379566e-05
1.662853893758655530e-05
1.656950343007807132e-05
1.659040915561622989e-05
1.698146361262052839e-05
1.512133237799030051e-05
1.515391227688014933e-05
1.458565402961999589e-05
1.452291207947251287e-05
1.471311845642505451e-05
1.319602185402279305e-05
1.327693883396766276e-05
1.444446687214546398e-05
1.590282900704157354e-05
1.583117799716400321e-05
1.577880143145491537e-05
1.577373340619322485e-05
1.524536455177214552e-05
1.748139580675084671e-05
1.827248974541927827e-05
1.777767591997194284e-05
1.798484252284885665e-05
1.753454652001440949e-05
1.670546199601491728e-05
1.683117026815470044e-05
1.659814606484194289e-05
1.656526355589641800e-05
1.651363963482265973e-05
1.647326711545293873e-05
1.681285714705756953e-05
1.511849253101434903e-05
1.517757477625116151e-05
1.508519383119510151e-05
1.515889864574351355e-05
1.330986523102587856e-05
1.327255000274114990e-05
1.433639258083545088e-05
1.574516915431683114e-05
1.565572862608040477e-05
1.558713100437632111e-05
1.528418581822344659e-05
1.543391560959583169e-05
1.516947404858408520e-05
1.507942385443508982e-05
1.730494638649923998e-05
1.800748724869309601e-05
1.764984808170505520e-05
1.735863440815515145e-05
1.662020740134564681e-05
1.645942267852950551e-05
1.642688127771463065e-05
1.635190106642950535e-05
1.661762524973932630e-05
1.498185632920792791e-05
1.341075176303888308e-05
1.331784609448550607e-05
1.323198646757927635e-05
1.397992848071070781e-05
1.407510847818786828e-05
1.417299396974387970e-05
1.559884244430661477e-05
1.544104192108788811e-05
1.538343588889601741e-05
1.523920520199098816e-05
1.510292365613378134e-05
1.498585131475468281e-05
1.708708445766483119e-05
1.767491222717071478e-05
1.724065994453126448e-05
1.641230456267444554e-05
1.627172584341049952e-05
1.620751441657047333e-05
1.636637474135124368e-05
1.485107279325445535e-05
1.312362632863203800e-05
1.353429572736076787e-05
1.340079007776189172e-05
1.330690277253857650e-05
1.320256463383217382e-05
1.365244037719762652e-05
1.382495263306757735e-05
1.387557469175030895e-05
1.398629280617254208e-05
1.537055971427466063e-05
1.517025214085464001e-05
1.504092084651868812e-05
1.487510019045098676e-05
1.684558970013532667e-05
1.725725169792088526e-05
1.676227789050208604e-05
1.613803353091522395e-05
1.601594351554945061e-05
1.603178621312971149e-05
1.468794609465734260e-05
1.309692782044816813e-05
1.299436977967582579e-05
1.343061649768135565e-05
1.324034457097579021e-05
1.311987904062247238e-05
1.360556803336475292e-05
1.374717785128306706e-05
1.508169920605260820e-05
1.482355909696267296e-05
1.673290457391052557e-05
1.630198953523583747e-05
1.573088479932710130e-05
1.564214638011060537e-05
1.449292356691681821e-05
1.296264232817091305e-05
1.279832931082106604e-05
1.327099187737870985e-05
1.302799064622179874e-05
1.344176462056718489e-05
1.128968637244628704e-05
1.152382886833541213e-05
1.473895128385698498e-05
1.452639465330624342e-05
1.607483970188022874e-05
1.585017230742575254e-05
1.524920690156027247e-05
1.524053425149297981e-05
1.421742515174766740e-05
1.279583076142005681e-05
1.251308213032972184e-05
1.304580946917834367e-05
1.046547794580138713e-05
1.082713701125762651e-05
1.062312824345190060e-05
1.107225385411379926e-05
1.088035199698620298e-05
1.115652302683039566e-05
1.435929579515702211e-05
1.512203185031660264e-05
1.524860136405639151e-05
1.027575647953130664e-05
7.383900092864135873e-06
7.527069085957620600e-06
7.699814358824137804e-06
7.873187551537093120e-06
8.045973275571303670e-06
8.218050200152564097e-06
1.477311315117633110e-05
1.389354513190681607e-05
1.214842406735694537e-05
1.254341556902356116e-05
1.043198244176988642e-05
1.066128487754360794e-05
1.019362971315693298e-05
1.079009003509473279e-05
1.165302141442455327e-05
1.356672111982281809e-05
1.441175780246885545e-05
1.421132213756529532e-05
4.846063971730033057e-06
5.050675869361710395e-06
9.917898189803566226e-06
9.476642251278298698e-06
9.067783260598286977e-06
8.757603026233603622e-06
7.259154469993660068e-06
7.677649739571740559e-06
7.517984292431748829e-06
8.379279804662531785e-06
7.843838568925299968e-06
8.084798257420782255e-06
1.409024128698566710e-05
1.311163216830714831e-05
1.192143126296221081e-05
1.036318053545350520e-05
9.979864971358089144e-06
1.120904739775653218e-05
1.124210138495303515e-05
1.274916134590493497e-05
1.336366275289439822e-05
1.292761558613349335e-05
4.649366290164772701e-06
6.959180166966356652e-06
6.730161082101500404e-06
9.582597619327218460e-06
9.038041216804584019e-06
6.978543413447888165e-06
8.534776027617295137e-06
7.444114761365373681e-06
7.936933935126666307e-06
1.324463682781690067e-05
1.072047919931693149e-05
1.057596029290820016e-05
1.219129615945771183e-05
1.238576259602349703e-05
1.145702395441158689e-05
1.025376110472956252e-05
9.963799235283958566e-06
8.541023115870711901e-06
8.537675002499898693e-06
6.779047505956998655e-06
7.381517491331044612e-06
6.214550254467625648e-06
7.453613916766643765e-06
6.362916548949994025e-06
4.569332883256803856e-06
4.521981315083950444e-06
6.641955149092333299e-06
6.410011651075105197e-06
1.011423647221282701e-05
9.989826093276492884e-06
1.142667996139814260e-05
1.151800688145641392e-05
6.216238061977754466e-06
5.431629145801849631e-06
5.576937366025290858e-06
4.463000647553039457e-06
4.456696502244881726e-06
4.423318371237921714e-06
4.517912402163139676e-06
4.403850484848116137e-06
9.353330784191218273e-06
9.976968730963609464e-06
1.035365563180578092e-05
4.661351091431978856e-06
3.908335135822723522e-06
3.318184253954930333e-06
4.298090825737460392e-06
4.322209640663411577e-06
4.306405446253845217e-06
4.351216397913528450e-06
4.449246180658394389e-06
4.576214188901238528e-06
3.757569617261216951e-06
3.414289400113668595e-06
6.168768893640083154e-06
5.957384120053109723e-06
8.759414067250395473e-06
8.336134543343987866e-06
8.048624307103584172e-06
8.919208781420473578e-06
2.694070599317484822e-06
2.830165036312026857e-06
2.340355740802277029e-06
3.285798096966446623e-06
3.211971334830731272e-06
3.568718527262110322e-06
3.384688430656687417e-06
4.086200615820140660e-06
3.907702512812540586e-06
4.178374030887619921e-06
4.188479727130031043e-06
4.252717396562974477e-06
4.343896007320800654e-06
4.442956608564691242e-06
4.774447276940289950e-06
4.655100615873395916e-06
3.729531307614661100e-06
5.571990274794157182e-06
3.074933775204754335e-06
7.426009776228103878e-06
6.578352907027478534e-06
5.848732510849277573e-06
5.583145895192846639e-06
7.431688177290090284e-06
6.678532648554336840e-06
7.212954626778582267e-06
5.935831944282331996e-06
1.803378961457181780e-06
3.500112376650086520e-06
3.967775000532480796e-06
4.103292467007617421e-06
4.815192158425350095e-06
4.603005199165250758e-06
4.222818680046227286e-06
4.423128553559601396e-06
3.662400624563613618e-06
5.083284357376021645e-06
5.176040305666088141e-06
5.963623479917902607e-06
6.232741917307300129e-06
5.151534099424507356e-06
5.875251401639385035e-06
1.147426756396461060e-06
1.246152965996149902e-06
4.285318113587152471e-06
4.580399788118807262e-06
3.882930292683281047e-06
4.381240544425715567e-06
4.076040339610783098e-06