<?xml version="1.0" encoding="UTF-8"?>
<VTKFile type="UnstructuredGrid" version="0.1" byte_order="LittleEndian">
<UnstructuredGrid>
<Piece NumberOfPoints="4497" NumberOfCells="8293">
<PointData>
<DataArray type="Float64" Name="Current_density_norm_@_t" Format="ascii">
3.786393478730817621e-06
5.126070704605017385e-06
3.280804545501985466e-06
2.434110707234041238e-06
2.269615052644156077e-06
1.374672173890950661e-06
8.987266126630348853e-07
4.505453478254690007e-07
-8.993597833771205962e-07
1.841505929789218418e-05
1.845939292598736120e-05
1.851428415133052636e-05
1.701710161697912352e-05
1.705611316809482319e-05
1.711977350977883527e-05
1.538315148353998756e-05
1.542255913436851411e-05
1.550929885380645485e-05
4.588786271427422007e-06
4.546043943820513218e-06
4.683789911325303304e-06
7.981962234501266466e-06
7.922673227841936294e-06
7.758214707693501225e-06
8.074580483740198571e-06
8.252216950752662704e-06
1.070871708193190065e-05
1.070336623451710091e-05
1.090049755770172233e-05
1.090750837389499021e-05
1.114496342497760340e-05
1.051833120766450324e-05
1.049005233427182372e-05
1.006473257452038079e-05
9.947969035594081692e-06
1.023038271678335460e-05
9.779724663632171963e-06
9.663978135007586154e-06
9.433617083194112857e-06
9.380091062821261296e-06
9.190803539057383495e-06
9.099353960678245891e-06
7.640724374114474883e-06
7.549741634949756812e-06
8.936221211062519564e-06
8.821371123150581608e-06
8.641119297271142194e-06
8.540134489585141206e-06
8.392827290474335939e-06
7.480598892325588249e-06
7.288971165902445331e-06
1.028804229457140664e-05
3.618456730068381513e-06
1.842646548836578044e-06
1.889050826085503287e-06
8.318562420335526811e-07
0.000000000000000000e+00
-3.321125181579211959e-07
-6.361759330520865841e-07
1.810223608728531142e-05
1.808882500264630413e-05
1.818208496358762459e-05
1.803509265758169677e-05
1.843469287178436770e-05
1.850736079387230800e-05
1.797694501148262635e-05
1.815571532384421008e-05
1.826114141078046847e-05
1.805244697262916239e-05
1.795532859472494334e-05
1.840458678645141103e-05
1.823467788633821064e-05
1.836037330192778825e-05
1.833565131334074393e-05
1.833157087267214369e-05
1.844543313757520807e-05
1.787542196096590473e-05
1.787065978278095407e-05
1.809737068502700172e-05
1.797681656204062892e-05
1.832731408544023522e-05
1.818321566064544788e-05
1.822034832211456504e-05
1.787734513395721251e-05
1.834099141754512660e-05
1.777494721132662957e-05
1.776485881014727301e-05
1.798353142354483194e-05
1.819599330861437482e-05
1.807885192103639638e-05
1.780939822087594727e-05
1.820288895844564923e-05
1.764853471133533686e-05
1.764020200125129441e-05
1.788925974758613554e-05
1.802381763640349192e-05
1.768321470642569010e-05
1.801903293123466868e-05
1.748423980379749327e-05
1.746142505908849352e-05
1.775670286777629732e-05
1.752005056330406080e-05
1.777399388055708534e-05
1.727078362397093807e-05
1.727458293359246353e-05
1.739767633445442747e-05
1.744773974209910984e-05
1.699320289177179503e-05
1.705271208637769561e-05
1.696578711882941923e-05
1.701312230184784960e-05
1.663250374843436701e-05
1.652585191365970143e-05
1.643424856373949217e-05
1.616367350190741310e-05
1.592141109861126721e-05
1.566307108585547283e-05
1.555448027811112536e-05
1.518831670396762423e-05
1.466457541449971315e-05
1.456353990568059924e-05
1.476277435902151398e-05
1.375219820111526928e-05
1.349099040757041371e-05
1.225343753046584678e-05
1.259880169281293158e-05
1.136582320062017208e-05
1.094902417113316652e-05
9.404640446863104652e-06
9.462566108158579098e-06
9.988989786666242657e-06
8.126987447765737438e-06
7.867282459772223892e-06
6.935924823222612856e-06
6.700061785901373704e-06
5.912469308024567113e-06
6.088590632584104111e-06
5.453637535076953017e-06
5.155053454534250702e-06
8.495729005736618714e-06
3.798181391560539145e-06
4.086211261502697989e-06
3.245566430365977828e-06
6.716847155396589997e-06
6.115638664589726373e-06
4.672958189220734071e-06
5.412363844766889841e-06
3.985392514097432236e-06
3.255016746227769848e-06
2.512811113810560847e-06
5.424510972140563316e-06
4.734269094070141577e-06
4.036173151009885839e-06
3.410078201527904588e-06
2.663459695655287565e-06
1.804974862433908036e-06
4.381569007123602036e-06
3.636829982700804332e-06
2.883518107450454812e-06
2.219103818135541939e-06
1.424952353744433299e-06
3.463069912277792977e-06
2.412882421958887339e-06
1.763373229304263665e-06
1.029816985696109002e-06
2.580170402381001644e-06
1.568187842599362442e-06
5.933720578275929814e-07
1.162661081675154359e-06
1.639239758993743635e-06
6.999873659713946228e-07
1.033722377599655401e-06
-3.028127454911620612e-09
-3.884437978930021786e-07
4.753152800133626609e-07
-2.957501061215693966e-07
1.062930386512722940e-07
-7.266225933247338637e-07
-1.047546787637014647e-06
-2.389321298869708979e-07
-9.933537061328453466e-07
-5.414712056944580350e-07
-1.094551197146934347e-06
-7.784414300295773055e-07
-1.351806209925096660e-06
-1.610741373827649168e-06
-1.285308631324042483e-06
-9.608013101500528013e-07
-1.403823071867587422e-06
-1.209030373889426679e-06
-1.101090071268736887e-06
-1.810666851352212829e-06
-1.456726429390754098e-06
-1.727433932118317400e-06
-1.535020663075345076e-06
-1.292088839283209432e-06
-1.960629760075265525e-06
-2.073404730759143462e-06
-1.526309815475392825e-06
-1.863582838578243175e-06
-1.722684417387607517e-06
-1.356094351311348952e-06
-1.533155661195559561e-06
-2.157965255995219018e-06
-1.711650617407455001e-06
-1.946309724581626629e-06
-1.405286520529967480e-06
-1.683046715915168246e-06
-1.540469226480473379e-06
-2.221486798367696579e-06
-1.858256702379942894e-06
-2.074800442714611772e-06
-1.795645385325783274e-06
-1.443058082761355548e-06
-1.660895788525049490e-06
-1.548116367697369238e-06
-2.269137833246857088e-06
-2.154062523934694028e-06
-1.975664529907554260e-06
-2.093318217381545406e-06
-1.754274458959427201e-06
-1.869096515916072683e-06
-1.473151921960233090e-06
-1.643569779010349457e-06
-1.559450083349664030e-06
-2.304993952688111816e-06
-2.215026849473060550e-06
-2.138593421485792781e-06
-1.719176545949954577e-06
-1.983070741135593216e-06
-1.837411325567361173e-06
-1.512685038056656420e-06
-1.618956763033513755e-06
-2.332101339620414329e-06
-2.241828282279385525e-06
-1.685524086651702617e-06
-2.212300368531759279e-06
-2.154641042202019155e-06
-2.056049094750720947e-06
-1.783714738382990457e-06
-1.916419881477765965e-06
-1.597764581538831886e-06
-2.311654872850122098e-06
-1.707789296748680678e-06
-2.238976540164870831e-06
-2.133429893071727275e-06
-1.998503941815078852e-06
-1.842772231342338659e-06
1.661259364054781072e-05
1.661126674131104664e-05
1.673067780983159496e-05
1.704117675175218606e-05
1.712223612485216375e-05
1.702358179102533525e-05
1.670802869516147112e-05
1.683320227596092408e-05
1.692860208139770932e-05
1.694879044442222803e-05
1.681456079443864257e-05
1.659854178645050056e-05
1.651575853172466203e-05
1.650811795878341537e-05
1.706848309662173385e-05
1.694195728430766292e-05
1.696535838091331542e-05
1.665834930395889470e-05
1.680260421077364738e-05
1.651499618970602134e-05
1.641644643521806106e-05
1.639555444822773849e-05
1.695297532637496434e-05
1.653984535874253959e-05
1.681949188765176090e-05
1.665053640885349074e-05
1.640389785693982332e-05
1.628205559806534733e-05
1.625042062145633776e-05
1.679733259548200395e-05
1.647178108538392477e-05
1.661158173385601322e-05
1.628082696437825529e-05
1.610372796138100619e-05
1.607467492425787887e-05
1.658705967870194428e-05
1.634379863429084997e-05
1.612160341489605989e-05
1.586651455572556674e-05
1.587679952524159756e-05
1.630334597195193654e-05
1.603613175215613492e-05
1.565204670775354883e-05
1.555093371686499721e-05
1.592050588915389821e-05
1.539773175653169653e-05
1.513106178895842852e-05
1.540377411682148848e-05
1.494922604323908064e-05
1.457243979336081258e-05
1.443445107890159142e-05
1.470643088538682347e-05
1.399848331443428494e-05
1.383422112082720136e-05
1.349851565482758576e-05
1.376517456259353779e-05
1.285679517575705629e-05
1.287893961004109715e-05
1.251106406011745469e-05
1.176324086913826310e-05
1.151151401365728797e-05
1.124692719757263337e-05
1.052480087283398546e-05
9.884308775342790556e-06
9.892560844128374408e-06
8.907178994205841566e-06
8.800175402147698367e-06
8.015317862694500885e-06
8.082815428664501996e-06
7.330233668752356983e-06
7.417936526980811949e-06
6.689053243173542596e-06
6.446053897417126399e-06
6.238353602376796145e-06
5.527245307451909357e-06
5.453830923178517944e-06
5.173529327668088633e-06
4.489577484047197765e-06
4.596593101895736945e-06
4.234974324327261911e-06
4.157006429423743156e-06
3.496915577208140981e-06
3.644787040963033922e-06
2.987303362090983927e-06
3.123742659149570033e-06
2.098530451894503142e-06
2.520974394481064056e-06
2.469740604560002445e-06
1.860156085204297400e-06
1.696596149274047655e-06
1.988735786545710419e-06
1.429432825671527072e-06
1.605688443656047602e-06
1.291039743439798001e-06
1.168004624655345495e-06
1.043032974779406239e-06
1.316323290843816757e-06
5.186619431144565124e-07
5.937118122839508508e-07
6.462769673174908683e-07
4.920964063387087871e-07
8.507594640099152525e-07
5.203709985238434639e-07
8.017929237574612748e-07
1.097319191223329036e-06
5.513115179973739652e-07
7.161962738243175889e-07
5.876468744476176189e-07
8.090907166805962712e-07
3.947940933425948381e-07
4.044423027084780768e-07
2.614397163746005518e-07
4.123029197735803215e-07
5.422517671150473294e-07
4.653052699074932785e-07
6.360268642694737561e-07
9.327714028120877667e-07
7.030376314014873801e-07
5.436713641077327129e-07
2.756451476289303624e-07
3.874207736641794542e-07
4.253501046851069695e-07
2.111785423224968569e-07
7.847774405553562996e-08
3.181536015762986781e-07
1.936587279868580124e-07
3.817153199732885744e-07
4.928368032406924137e-07
3.584253679565280919e-07
9.415722021696591910e-08
1.506576913618296471e-07
-5.725391443105059023e-09
-1.185637302786623538e-07
-5.949652368269098962e-08
7.207165685118701649e-08
2.608438802991136358e-07
1.268346058026774916e-07
3.668747185685401782e-07
-4.018796337210719894e-08
-2.135872912410635805e-07
-1.397634095246128803e-07
-1.007374967800794496e-07
-1.474764549232407090e-07
-1.828625549983298510e-07
-2.682078997187381536e-07
-1.692668136323346718e-08
-1.184277602368451389e-07
2.090944405298999877e-07
4.180793748706645324e-08
-1.771598582932873225e-07
-2.174679940178857131e-07
-3.087961906730594296e-07
-9.110156828653646140e-08
-1.995145574911560030e-07
-2.791179145023243966e-07
1.543410222167356110e-05
1.552195454277081042e-05
1.495033501612231727e-05
1.492914363647894232e-05
1.502876153560153222e-05
1.487489624235551604e-05
1.482357872037619331e-05
1.542546114626469042e-05
1.547727917461686284e-05
1.502063224835176506e-05
1.513370144449292933e-05
1.512630054672991242e-05
1.527737280257763312e-05
1.525904589388254339e-05
1.533977682581752928e-05
1.527280531534598969e-05
1.490048647145753803e-05
1.478694137654315310e-05
1.469526561870034139e-05
1.535374462897708359e-05
1.496572680769517441e-05
1.510298303619354782e-05
1.520925521396582537e-05
1.480690670475277621e-05
1.466086735929561489e-05
1.453501213418033409e-05
1.518621598051307953e-05
1.487650544722078142e-05
1.500529166778597509e-05
1.467123213216370978e-05
1.448740689776252565e-05
1.432422582069700485e-05
1.495929077636976595e-05
1.469730181067383280e-05
1.448556347380530706e-05
1.424912824319639363e-05
1.404742626403182975e-05
1.465165426355426919e-05
1.430801238462253542e-05
1.393838932778053256e-05
1.368894721547100812e-05
1.423514962920763807e-05
1.393202657636811843e-05
1.357890035788529771e-05
1.325877000110169216e-05
1.367072281474529942e-05
1.308237197245190718e-05
1.271248975653056402e-05
1.290607709285186897e-05
1.238036575261293966e-05
1.199304046581725458e-05
1.203197484847472426e-05
1.155618298848562020e-05
1.112132523246426192e-05
1.092161057911708125e-05
1.046492670558202106e-05
1.099170037570908551e-05
1.009322845621006849e-05
9.786080968121812433e-06
9.463638377392301714e-06
9.116928116197095078e-06
8.623714164540683408e-06
2.763696206434971224e-06
2.682180949428729698e-06
2.705177737169587832e-06
2.610285370431068086e-06
2.602900488327786680e-06
8.177944005009197450e-06
7.891085000992782266e-06
7.578460227286009340e-06
2.504857842778090929e-06
2.545221589293771425e-06
2.616207907501221189e-06
2.717732138154987280e-06
2.834899172952133346e-06
2.486545586978880207e-06
2.372079917887946769e-06
7.047298174823835892e-06
6.730849169759619947e-06
6.609750392684145391e-06
2.434315090875720292e-06
2.534609458269072353e-06
2.607343064811915752e-06
2.760344791383506047e-06
2.915796282862893596e-06
2.811679926206360875e-06
3.022010222230823312e-06
1.940332350676009067e-06
2.022635357744702213e-06
1.975224264585129603e-06
2.107486920130603724e-06
2.223124209792438272e-06
2.256943654342706677e-06
2.053640481196316729e-06
2.113286490164674712e-06
1.968533863284989737e-06
2.029553485263905557e-06
2.341873196749164370e-06
2.195568478050195169e-06
1.839808913485286546e-06
1.879082431857494485e-06
5.742567612862160655e-06
5.684051718866746697e-06
5.131958353979574299e-06
5.219317647862089283e-06
4.640540003390123291e-06
4.770180017985053067e-06
4.161802815722240699e-06
4.257633141415103267e-06
6.011674570767756856e-06
2.432440984035357072e-06
2.612807901193288224e-06
2.888815368057148501e-06
3.161543240997257072e-06
2.670391756943613380e-06
1.895822164993416394e-06
2.190588761086493958e-06
1.971487560717934403e-06
2.996125920258904089e-06
3.342383583575988145e-06
3.673328445317347460e-06
3.834707331968612156e-06
2.076062259003994513e-06
1.965706887778764396e-06
5.023368636351568004e-06
4.037420165828182938e-06
3.474743675135478355e-06
2.394679361588171325e-06
2.605351554277138902e-06
2.074118538224571606e-06
3.307587603943586154e-06
3.559297916447998286e-06
3.119908424116885931e-06
2.796872396929095709e-06
3.001932510969268683e-06
2.213046580893539095e-06
2.401337870346547156e-06
2.656438543927215883e-06
1.340526732577670990e-05
1.342932149402255537e-05
1.350517524353740426e-05
1.343566718692950276e-05
1.352984832474105642e-05
1.331940882173335904e-05
1.332512269677527811e-05
1.319200271984788790e-05
1.319210395531766989e-05
1.333602675478723088e-05
1.349653138335875180e-05
1.340213840428961068e-05
1.303590796581355903e-05
1.301705724248390311e-05
1.320002297301526697e-05
1.307628294512275363e-05
1.325344463604628755e-05
1.336555816879093678e-05
1.284898358363832189e-05
1.278841488717867285e-05
1.258733513345965940e-05
1.267497870908680938e-05
1.290289190707787296e-05
1.304611178608301822e-05
1.318782479315235985e-05
1.237473542735029148e-05
1.247358742160036964e-05
1.267421946971040985e-05
1.276117533145371688e-05
1.294660604658601294e-05
1.214100645931788566e-05
1.198983697212208522e-05
1.238881005006254714e-05
1.261932714664949770e-05
1.170243355090831993e-05
1.150830973271963807e-05
1.187749464933072715e-05
1.134539674207904520e-05
1.217509845742363540e-05
1.112549705670657620e-05
1.165796974484289049e-05
1.133275535495166839e-05
1.105921254810894381e-05
1.071117945966684973e-05
1.102383684204091745e-05
1.078160044526891354e-05
4.498565942671016031e-06
4.437208245297047466e-06
4.437422835033822873e-06
4.343557384208490177e-06
1.027121279756625228e-05
9.970085848870104394e-06
1.052702678813659544e-05
4.494808941206243916e-06
4.856105466329970263e-06
4.713693895122422365e-06
5.055660339151233452e-06
4.894360197748082162e-06
4.293004152235245661e-06
4.413028016569628724e-06
5.291031830146737750e-06
5.087103819072980730e-06
9.548552891092586465e-06
9.273865202023682226e-06
9.997732079456191632e-06
4.974000693260726075e-06
4.537654831712916218e-06
4.728246221692544891e-06
4.370398019621125263e-06
6.386922224675324057e-06
6.464201548377974885e-06
6.770844693252003164e-06
6.162345844954148866e-06
6.180847753309092569e-06
5.230409593732952328e-06
5.592143756868362202e-06
5.519555568600920990e-06
5.861190099999952541e-06
8.783746356167534950e-06
8.613387937347215909e-06
8.031363064223665552e-06
7.980697914300080418e-06
6.704510767200261164e-06
7.368736864923770915e-06
6.203980864060380169e-06
7.343103956826526703e-06
6.208446258810864232e-06
9.064882341767442788e-06
4.929783611564853826e-06
4.617748135328329953e-06
4.475328723847587184e-06
5.786054622986029675e-06
5.949652186726273959e-06
5.159535760807426979e-06
5.394557672507937460e-06
5.837735846260731816e-06
8.200939384720245081e-06
7.386047500027213505e-06
6.603473319302992849e-06
4.811123369269388608e-06
5.416716256156009756e-06
5.073264496399454966e-06
7.801903501185353357e-06
7.996739677801719925e-06
8.172756535772883159e-06
9.880953605040066433e-06
9.485799361905189803e-06
9.101062375345777042e-06
8.725555138230886405e-06
8.357858718808832205e-06
1.822191583470426769e-05
1.821997494561196024e-05
1.833774270911263295e-05
1.831166688014948234e-05
1.845444863738916760e-05
1.841261373668705084e-05
1.857054902435606160e-05
1.851768021031547463e-05
1.868990057278133320e-05
1.864624573217399641e-05
1.881325944939345158e-05
1.810150467723115969e-05
1.804169061298348638e-05
1.856329057239697967e-05
1.878069362172800287e-05
1.894775540907282240e-05
1.731748945742830643e-05
1.732591668752419531e-05
1.746214997192544212e-05
1.759717269186801902e-05
1.739894016921579678e-05
1.716308622547477335e-05
1.718862194292683894e-05
1.687260769177997767e-05
1.691095125104387614e-05
1.705027220519810059e-05
1.706135704628910173e-05
1.793804146896108096e-05
1.798063218078185853e-05
1.780921204874740172e-05
1.785651383245379561e-05
1.767646230639159216e-05
1.772860409493113209e-05
1.754098016785462068e-05
1.674905024714462570e-05
1.677053168555149240e-05
1.659874157636195924e-05
1.662822658474790656e-05
1.911592989571986274e-05
1.882346883151121019e-05
1.905678178498943211e-05
1.929064137237100483e-05
1.921419449631487955e-05
1.943900034272931857e-05
1.646977272566531590e-05
1.648367066576731109e-05
1.572355099455239805e-05
1.572529959770014996e-05
1.588193475850337518e-05
1.510315002580253573e-05
1.507361061002904236e-05
1.524040288007952378e-05
1.526817134240010724e-05
1.540469715218650810e-05
1.541136619033849799e-05
1.556632480831711700e-05
1.554239283214382269e-05
1.343081872915019914e-05
1.342847940889628294e-05
1.359085585975365333e-05
1.362756851342407488e-05
1.374540667736001538e-05
1.488269371334249798e-05
1.490413393499032277e-05
1.630336507609894572e-05
1.633663661805642177e-05
1.586619467678182960e-05
1.603594768110306413e-05
1.618753270148912040e-05
1.599434732135600492e-05
1.614153533486126227e-05
1.329497729150969326e-05
1.325521286321054393e-05
1.373909987514869405e-05
1.390178686245191963e-05
1.452590562409872697e-05
1.455960898155763290e-05
1.473189737990954933e-05
1.471398797918493332e-05
1.316240237401622058e-05
1.307040174719369433e-05
1.389742803661833042e-05
1.406136861082073513e-05
1.422409907053045705e-05
1.405158227613365242e-05
1.420895684212310583e-05
1.439025122586256466e-05
1.437113630386493881e-05
1.267953148448597898e-05
1.266223625776566209e-05
1.287359600589518729e-05
1.248578839958995835e-05
1.243307836692384539e-05
1.169663825467308798e-05
1.166366192324751305e-05
1.192189503842682853e-05
1.193118314276646682e-05
1.218418167909083273e-05
1.213977116308814639e-05
1.145060978327873538e-05
1.140792126042084929e-05
1.120714745744702960e-05
4.663079529455163367e-06
4.589719775576011757e-06
4.796590055909797222e-06
7.002468944396855559e-06
7.055998832373350813e-06
6.785705338728440482e-06
6.721064520206209275e-06
4.939690568635552530e-06
5.025481686336914396e-06
4.451495325769451875e-06
4.401628500267594615e-06
6.505793057472473439e-06
6.434002796956771273e-06
6.266676083881725116e-06
6.138632757964443684e-06
5.118095587440688740e-06
5.278582625134307796e-06
5.656783823816788860e-06
5.556791414681002927e-06
5.845085220145795880e-06
4.279257557568955350e-06
4.216855973887129454e-06
5.943357784886809501e-06
4.094652067772354951e-06
4.030917455141335202e-06
3.843974673723187294e-06
3.899734041788476966e-06
3.466757202116570332e-06
3.655849921292560880e-06
3.524003069671943262e-06
3.705601869380928126e-06
3.276523177306186738e-06
3.337398004579742780e-06
4.899332574914937505e-06
3.150607998387369723e-06
3.085471820523260736e-06
2.957411694114203031e-06
2.894143428311727971e-06
3.722830143873510278e-06
2.802360558749653719e-06
2.702496544705815743e-06
1.771176353301444587e-06
2.565864457292067544e-06
2.510887692542980940e-06
-3.630338607774298828e-08
2.413905124670301470e-06
2.318900812456644700e-06
2.254361787722455095e-06
2.126909341494021614e-06
1.982732149774814211e-06
1.934789865713365711e-06
1.818662181828028047e-06
1.742687109364101339e-06
1.636030415690146341e-06
1.552037877933639308e-06
1.455442378287204162e-06
1.363760957155755920e-06
1.177695737585757864e-06
1.255269428070950159e-06
9.938177181637270434e-07
1.062265943103223454e-06
8.775764504107040289e-07
8.122130351607503260e-07
7.044444372037941436e-07
6.327332756998503818e-07
5.553166993808329106e-07
4.554693850588877759e-07
2.788869689073613246e-07
3.179275048949578469e-07
1.556158291122686820e-07
1.023170476633008741e-07
-1.639938126509393529e-08
-7.428413885769638033e-08
-1.901503916833121005e-07
-2.507312098143086904e-07
-3.472560344236160136e-07
-4.272240000953468340e-07
-5.143152143253892076e-07
-6.037168897867551179e-07
-6.860501356396226817e-07
-7.804628047517651887e-07
-8.621287524490594707e-07
-9.573319715647026382e-07
-1.040953936363800278e-06
-1.134326486275283198e-06
-3.234533314274891464e-06
-3.417561519555392690e-06
-3.176890806796203268e-06
-1.224138845866735828e-06
-1.311477799201070903e-06
-3.019541330485816864e-06
-2.894710373668741658e-06
-2.730747542999334390e-06
-2.623852191966270080e-06
-1.488611237947125587e-06
-1.398084631932018357e-06
-1.543760651452961913e-06
-1.665844082950998437e-06
-2.404339020621203469e-06
-2.528627958390925831e-06
-1.779146097434655245e-06
-1.842923240024389667e-06
-2.281179057456826061e-06
-2.205319990877152347e-06
-2.074455472439169266e-06
-2.020057066386979121e-06
-1.927351618809689809e-06
1.812068589756695979e-05
1.859792947977373850e-05
1.868877593210077580e-05
1.863427861911161955e-05
1.804073171539271738e-05
1.796707890155890358e-05
1.856517807222936870e-05
1.868452112748008947e-05
1.855622271451638127e-05
1.865769063142477146e-05
1.722334195754597326e-05
1.696122803933032092e-05
1.790533169357378011e-05
1.736853804021278627e-05
1.788281965227889983e-05
1.844830462611061879e-05
1.856645605836142269e-05
1.866482416203239878e-05
1.721075024104360934e-05
1.725713759990073995e-05
1.729770979650376264e-05
1.778902835205898377e-05
1.781096480156182756e-05
1.761502001021349409e-05
1.748303332966660755e-05
1.725954492919344233e-05
1.732897611191001056e-05
1.726332465180938669e-05
1.776165309268048955e-05
1.652310635384895645e-05
1.643842459889728201e-05
1.562015833961697428e-05
1.834116459445314477e-05
1.925984288999650447e-05
1.851689652155715719e-05
1.875961490224238270e-05
1.902444670190003118e-05
1.835542149878178293e-05
1.720490110006397765e-05
1.765528816044519502e-05
1.749529581954398509e-05
1.738804165633580761e-05
1.724634160885794835e-05
1.717829607396837886e-05
1.720333115717731401e-05
1.763280985713121604e-05
1.559992024179331790e-05
1.563628839862341049e-05
1.501749249190506124e-05
1.494967113796880325e-05
1.515492847952384670e-05
1.351627657116837269e-05
1.360599541493012554e-05
1.486725789936372167e-05
1.645105000061142800e-05
1.637455749021118019e-05
1.631743625710929473e-05
1.630912784081606080e-05
1.573524462005308631e-05
1.818884548563989693e-05
1.903983138190590388e-05
1.850822970203666091e-05
1.873229557149447446e-05
1.825066148320532138e-05
1.733388810893649130e-05
1.747051344635633461e-05
1.721693780649165561e-05
1.718504148444826077e-05
1.712416067680060745e-05
1.707771478264069533e-05
1.745550297760803084e-05
1.560068071108534492e-05
1.566525842681453434e-05
1.556772296756930358e-05
1.564732838977541594e-05
1.364301390783061090e-05
1.360569879456313428e-05
1.475186755102913866e-05
1.628445447628239161e-05
1.618646597736905023e-05
1.610941657493580588e-05
1.578031002398897192e-05
1.594285979795683470e-05
1.566061904512871850e-05
1.556418519306224587e-05
1.800553005514242530e-05
1.876370019275671751e-05
1.838061140749461665e-05
1.806812445558698721e-05
1.724769231459723098e-05
1.707471292113541171e-05
1.703577229934192519e-05
1.695124293505864688e-05
1.725032947352002265e-05
1.545920140340872331e-05
1.375242577498169460e-05
1.365608287827941027e-05
1.356530885046127813e-05
1.436713878508339085e-05
1.447128676088169362e-05
1.457862246843816616e-05
1.612990922340631285e-05
1.595892289239886382e-05
1.589350284465821417e-05
1.573784305905218732e-05
1.559162707562342895e-05
1.546674613957891849e-05
1.777993371751251510e-05
1.841715366918648277e-05
1.795226874982896412e-05
1.702887129073032659e-05
1.687537379545922585e-05
1.680086161455118915e-05
1.698604620236257687e-05
1.532215937210208698e-05
1.345083150950081234e-05
1.388664478899361666e-05
1.374528397439654697e-05
1.364701790518218916e-05
1.353634005592710766e-05
1.401530900546062397e-05
1.420120329269771052e-05
1.426003933078482346e-05
1.438158969162719704e-05
1.588877888560334049e-05
1.567127861486560745e-05
1.552899665546893029e-05
1.535124769506129256e-05
1.752865649244395255e-05
1.798195490488086498e-05
1.745028526063713726e-05
1.673863772721846703e-05
1.660197438815807613e-05
1.663380381052189167e-05
1.515246115589342663e-05
1.342596088547567185e-05
1.331501805089744542e-05
1.378081252263896412e-05
1.357927141063944635e-05
1.345319647529192591e-05
1.397199307149540180e-05
1.412849778082361790e-05
1.558358198290499990e-05
1.530275309350365197e-05
1.743559119244699856e-05
1.696485224428999355e-05
1.630646668001067167e-05
1.622469001347166939e-05
1.494936341898815587e-05
1.328580806996620145e-05
1.310933752127044327e-05
1.361699410145446443e-05
1.335910111436411674e-05
1.380504834363816192e-05
1.147045603557043306e-05
1.172453311850125229e-05
1.522241744342277109e-05
1.499138326224450432e-05
1.674988594176172324e-05
1.649642309186478184e-05
1.580191268051428760e-05
1.580375662482500626e-05
1.466117684194962015e-05
1.311369843944513896e-05
1.281031878700385871e-05
1.338522866851408420e-05
1.058277759527905147e-05
1.096975833308320398e-05
1.075194174742976361e-05
1.123824165214078718e-05
1.103157945869249877e-05
1.133501410762727145e-05
1.482138413765756485e-05
1.573784343791363963e-05
1.588894946963821414e-05
1.038203054990136380e-05
7.277506805734096568e-06
7.432803323598515700e-06
7.618681827158040932e-06
7.805774493333600950e-06
7.992223392215105338e-06
8.176743141390407333e-06
1.530600241044281244e-05
1.432452956524309784e-05
1.242663480481351352e-05
1.285430059868399494e-05
1.055251900190571875e-05
1.079906182631374004e-05
1.030080769006557926e-05
1.094303894523998414e-05
1.190256183847921231e-05
1.398583604906445730e-05
1.500048190621217075e-05
1.480811340264279028e-05
4.564620202817914183e-06
4.783048775079452744e-06
1.000292921905370081e-05
9.532663220182396055e-06
9.095061064165890308e-06
8.759317834794589153e-06
7.152485906664012881e-06
7.600350037184229694e-06
7.428114181187382071e-06
8.354226644299605798e-06
7.781053268537193609e-06
8.038906724084864713e-06
1.459308494557490753e-05
1.350305996668930290e-05
1.219784748574730891e-05
1.048865863315861393e-05
1.007842904927013549e-05
1.143076740750164079e-05
1.147737068314570329e-05
1.312666447354503374e-05
1.390328141916887802e-05
1.347050086272495685e-05
4.357448074313456077e-06
6.830765026655786324e-06
6.583926795432017801e-06
9.656894158556986009e-06
9.074583340068032448e-06
6.859538044284595101e-06
8.532695411926730314e-06
7.358303110671863124e-06
7.890391312831087251e-06
1.370902070728728498e-05
1.091573498200635571e-05
1.077443233599088943e-05
1.253328441150704432e-05
1.280966917789513917e-05
1.193814903103907932e-05
1.065594540271854235e-05
1.038222079555442164e-05
8.867898375696025581e-06
8.896206772565159071e-06
7.029455669101951652e-06
7.691498425697292421e-06
6.441206854132265817e-06
7.731117521667976012e-06
6.574031385407232160e-06
4.272948913002132059e-06
4.224768234907796071e-06
6.496984551392044308e-06
6.243427360020202955e-06
1.027235949857357550e-05
1.015322574445607117e-05
1.173027063810740860e-05
1.189664928923539990e-05
6.477282563047349323e-06
5.615665581304913917e-06
5.746567675842422457e-06
4.159558371822752568e-06
4.158113237108534247e-06
4.120275437950223488e-06
4.225588815579496338e-06
4.104466068723782444e-06
9.468863908336432205e-06
1.020131794987698387e-05
1.067662623662781518e-05
4.779914067059445686e-06
3.976274174596309570e-06
3.345280672827335783e-06
3.985137880212174502e-06
4.015191305326551761e-06
4.001486051466369612e-06
4.050803789859078936e-06
4.155671729856328412e-06
4.291401227252573800e-06
3.408527593337577457e-06
3.042488237696229411e-06
6.042323792502305422e-06
5.807776111901843560e-06
8.906653511694380903e-06
8.384124529204756081e-06
8.159469599209528761e-06
9.167576368195994046e-06
2.691378003677174583e-06
2.818882731512278704e-06
2.299330317862781746e-06
2.906523166391515998e-06
2.826185214588687985e-06
3.208580281909654109e-06
3.014492782892733732e-06
3.760058363116198156e-06
3.569647087390347418e-06
3.861124032205567388e-06
3.875495639205348266e-06
3.946974682177156017e-06
4.045453179633723100e-06
4.153279440873155938e-06
4.512847964461618709e-06
4.380059538488814428e-06
3.383137748640704173e-06
5.391889806905226301e-06
2.678164703166048535e-06
7.408336448287356717e-06
6.493735769098439440e-06
5.713501847384811348e-06
5.419132926900981885e-06
7.495085218060214712e-06
6.699275394946796342e-06
7.367228222171811789e-06
6.025232790509701306e-06
1.717705664706967885e-06
3.140490340804064602e-06
3.639663705408827243e-06
3.788435481011124375e-06
4.565582756064703664e-06
4.334985978648137498e-06
3.919971331690970547e-06
4.139112295467716477e-06
3.317524953119964632e-06
4.863814729177745930e-06
4.976736647577339127e-06
5.935954073609648738e-06
6.206914039446162348e-06
5.185233021813732863e-06
5.934879466502305333e-06
1.029172600220850664e-06
1.115507416718669298e-06
4.263831029778577815e-06
4.325768679477794916e-06
3.558396085758862515e-06