<?xml version="1.0" encoding="UTF-8"?>
<VTKFile type="UnstructuredGrid" version="0.1" byte_order="LittleEndian">
<UnstructuredGrid>
<Piece NumberOfPoints="4497" NumberOfCells="8293">
<PointData>
<DataArray type="Float64" Name="Current_density_norm_@_t" Format="ascii">
2.862411984106531933e-06
3.354200735103292939e-06
2.427772242773318390e-06
2.328782694986605928e-06
1.996609702907737165e-06
1.659215538741832902e-06
1.614314670512685757e-06
1.175682610673287268e-06
6.911476380323003835e-07
1.231311733248916035e-05
1.235029927534670431e-05
1.235944754238638813e-05
1.186041088634686325e-05
1.189659379110415602e-05
1.191112164777649082e-05
1.127842290048398948e-05
1.131880529546995695e-05
1.134426944943279952e-05
6.641622348679069104e-06
6.641294481789745610e-06
6.706997528724617036e-06
8.283443857172687492e-06
8.234175639682197068e-06
8.182099021624315507e-06
8.298756516934106538e-06
8.405306455860864183e-06
9.453779693670966077e-06
9.480374867090001799e-06
9.564361455698505620e-06
9.551366396337918936e-06
9.667886545524970702e-06
9.362300601728048622e-06
9.388999860200458963e-06
9.179662727910870820e-06
9.155012387875628517e-06
9.277269785005919144e-06
9.050850656276045254e-06
9.031289380293513276e-06
8.894841984729051201e-06
8.906870757933149009e-06
8.793536253845177805e-06
8.783157141758204066e-06
8.101392966184285733e-06
8.087257494645022179e-06
8.677096879000361377e-06
8.659817680731561444e-06
8.547999486835548220e-06
8.534418889728346048e-06
8.438030985389092625e-06
8.040820058626102056e-06
7.968124275329682230e-06
9.251665108715935893e-06
2.364325286235380287e-06
1.497914897293286667e-06
1.234318377739263933e-06
1.185607057380233730e-06
0.000000000000000000e+00
2.552271103380071096e-07
4.888649608159070715e-07
1.221767572480447840e-05
1.222759731765287261e-05
1.226435453459316053e-05
1.218717178922390217e-05
1.231073843042323907e-05
1.233587084381035063e-05
1.217133660902187459e-05
1.223141021342669369e-05
1.228879371090341848e-05
1.217985836933652801e-05
1.213972788661435187e-05
1.228390297629681562e-05
1.225231507728145035e-05
1.231965775420256352e-05
1.228548118716753125e-05
1.225989200162518933e-05
1.228733671595769395e-05
1.211064268636387580e-05
1.208421772427344149e-05
1.218135510811401334e-05
1.212637709621848917e-05
1.223503817462853863e-05
1.219853059614752497e-05
1.219227936509087111e-05
1.206600080032282004e-05
1.222134926304073706e-05
1.204815124411790091e-05
1.201480344459692523e-05
1.210145546905241209e-05
1.215825593493136074e-05
1.211885846169304163e-05
1.201077107557002401e-05
1.213407943652120304e-05
1.196957617285983341e-05
1.193286122446792776e-05
1.201946321073609961e-05
1.205953745381476070e-05
1.191781119103305133e-05
1.201792600268515547e-05
1.186745845358860260e-05
1.181695955386571323e-05
1.190847129380586666e-05
1.181340630937950312e-05
1.186306139367359025e-05
1.173481964149062632e-05
1.168903240061561510e-05
1.169769782280668345e-05
1.165692644980979384e-05
1.156227282218794233e-05
1.154522131949605379e-05
1.143923233413502412e-05
1.138230517912457621e-05
1.133807860323233046e-05
1.116639629188212354e-05
1.101653952235929137e-05
1.104665458575320832e-05
1.079245082562644125e-05
1.052921202186710277e-05
1.066801942124630216e-05
1.033748165643351747e-05
9.898306258798424476e-06
9.960901709336172081e-06
1.017595574734932332e-05
9.547829943702542015e-06
9.156711401442083536e-06
8.374771064157269365e-06
8.830938155387898779e-06
8.064601797176322083e-06
7.550519702758117001e-06
6.749939971834021460e-06
6.611264203108192764e-06
7.246551840175014794e-06
5.982154871635934936e-06
5.650399000944759279e-06
5.263851448876792359e-06
4.947368951701568568e-06
4.498962438224202788e-06
4.739583511813150270e-06
4.348698977139912444e-06
4.067726063735323941e-06
6.359299833770847380e-06
3.490458806693001427e-06
3.503467361276735061e-06
3.105080174003086169e-06
5.359022657550442862e-06
4.904441029331560535e-06
3.972397495362453221e-06
4.476061684341913890e-06
3.719689191933552288e-06
3.268708518716275117e-06
2.809910456054674924e-06
4.683738777406528482e-06
4.200899027453170092e-06
3.876164653717880586e-06
3.507442302475578512e-06
3.078145982349940175e-06
2.591033969224277945e-06
4.191913603777490643e-06
3.748872722741646966e-06
3.352990825666252384e-06
2.968017289404448210e-06
2.520857087047099006e-06
3.819143982218299955e-06
3.230603623726488456e-06
2.818643836875677680e-06
2.447922225176102746e-06
3.535567325624443732e-06
2.889388124383872299e-06
2.444033137739217564e-06
2.915463871853919108e-06
3.336974862884504054e-06
2.914873961724759212e-06
3.299045382189906237e-06
2.438816645601564046e-06
2.552943934202209706e-06
3.263993916268592411e-06
2.998748801677897912e-06
3.324216087545873232e-06
2.653110488212185130e-06
2.748110283197119949e-06
3.380515345496240334e-06
3.142829804959612006e-06
3.429778202117512785e-06
3.201610664670558834e-06
3.468435916145435937e-06
2.838217636376154428e-06
2.914852405073833183e-06
3.221282040249916692e-06
3.498154846102598689e-06
3.387426103563669395e-06
3.538687182866100062e-06
3.521061473772230569e-06
2.974055371286563985e-06
3.270508060760644777e-06
3.208948252819322698e-06
3.380000566469360411e-06
3.552244183070428173e-06
3.018648922789330947e-06
3.051930204291084816e-06
3.442567967954018958e-06
3.209593238510128110e-06
3.320725676741824462e-06
3.562573968456450814e-06
3.479470272968817275e-06
3.077024555035991873e-06
3.364123999659184364e-06
3.224203363391665496e-06
3.570570603707172502e-06
3.414901049935769396e-06
3.507124599299139248e-06
3.095829338185982583e-06
3.311351274350021361e-06
3.198781946656147427e-06
3.372250996595333293e-06
3.576811305566506257e-06
3.454520966387940405e-06
3.526340056893038749e-06
3.109983710411270353e-06
3.187047655183823842e-06
3.281357368946487298e-06
3.238700259623398670e-06
3.420000123784581203e-06
3.355151183289897159e-06
3.581657173404543697e-06
3.486777383655004677e-06
3.538699358501642660e-06
3.120524828564378778e-06
3.180033375460423064e-06
3.235800387260379018e-06
3.459058454846361153e-06
3.309440383186243573e-06
3.392110722247705286e-06
3.580257533712432057e-06
3.518282537727231487e-06
3.128527299414715609e-06
3.182472804848453894e-06
3.492941049223130695e-06
3.209033715848961336e-06
3.245388204385142780e-06
3.295385807988552360e-06
3.441084661067572179e-06
3.368014733744998258e-06
3.549652466495446747e-06
3.158801581995664208e-06
3.496858893792723942e-06
3.211374893692023116e-06
3.272278403924300670e-06
3.343453505684307384e-06
3.425627971882543747e-06
1.171619355476465123e-05
1.173440197930064706e-05
1.178531179827681489e-05
1.186057616800000884e-05
1.189229639567882088e-05
1.183983679905930490e-05
1.174957144691765696e-05
1.182037239052682352e-05
1.182616012044222629e-05
1.185991799598686866e-05
1.178579580511666928e-05
1.169089869515752884e-05
1.168042005945837276e-05
1.165428886845490351e-05
1.184711745422356126e-05
1.180882018125837529e-05
1.180164722031632656e-05
1.169859101484383107e-05
1.175104586486070846e-05
1.163382856595599068e-05
1.162430340469166243e-05
1.158512860652157584e-05
1.177685035487866874e-05
1.162338037719012230e-05
1.172479405723135678e-05
1.166159518326146665e-05
1.155905691744072850e-05
1.154392435578837344e-05
1.149400559222600146e-05
1.168223103385561335e-05
1.156423686528646185e-05
1.160798213418979749e-05
1.147195196572121695e-05
1.143736474087520565e-05
1.138140487614722311e-05
1.155430223695064765e-05
1.146125394018793634e-05
1.136968309498108654e-05
1.129558049060040158e-05
1.124851624829620872e-05
1.138172707115440168e-05
1.128330542920961030e-05
1.109151081728679115e-05
1.110696182777350735e-05
1.114889085079215087e-05
1.090620726311111173e-05
1.085601521261625419e-05
1.083460799232230342e-05
1.065375663749201148e-05
1.052216240972253704e-05
1.035469269251454658e-05
1.041049619165464545e-05
1.007979346691263337e-05
1.008096053985953327e-05
9.784853855392774380e-06
9.837994424559077928e-06
9.496789527538502981e-06
9.412960999442079201e-06
9.075246292693037859e-06
8.869990321989553578e-06
8.611025808557483028e-06
8.338723788315821942e-06
8.160107172174685500e-06
7.681196717701811784e-06
7.549590151112589372e-06
7.153972076756151774e-06
7.221550795575245427e-06
6.692641188531764745e-06
6.549998284701096043e-06
6.299228305660302256e-06
6.517924333654127926e-06
5.832146222504499377e-06
5.903445440130082841e-06
5.968328014973422410e-06
5.288001017763429743e-06
5.467740562490879036e-06
5.528512683865340760e-06
4.862612229815220967e-06
5.095799836127427025e-06
5.027780578768421532e-06
5.174776117788115522e-06
4.528495224195465947e-06
4.830335333860192767e-06
4.644227921485877050e-06
4.897652604973189341e-06
4.496106889860006880e-06
4.795926674420957683e-06
4.277602352838559637e-06
4.201024730011850645e-06
4.456344334061145718e-06
4.706149812130557838e-06
4.465059820969782603e-06
4.690634038740276778e-06
4.129435910952274929e-06
4.425113841081190557e-06
4.452502945243136707e-06
4.678849346813471869e-06
4.589906553880857766e-06
4.649571379447336697e-06
4.651660671777277273e-06
4.597500296229184923e-06
4.145275826726932270e-06
4.157210413776537952e-06
4.419412240982561526e-06
4.669906238682194338e-06
4.576514602654451921e-06
4.654503201593022311e-06
4.556545703074273565e-06
4.658209877813730018e-06
4.506930524940995344e-06
4.539619235159227920e-06
4.454812330388349936e-06
4.561200806365604208e-06
4.639232564495739957e-06
4.597533314946771037e-06
4.533143485551487841e-06
4.663238007402256796e-06
4.511387869917758139e-06
4.370301127155217798e-06
4.166130980804604172e-06
4.466766947312914098e-06
4.449608280800535179e-06
4.397281051589004053e-06
4.359535120057376171e-06
4.510459686201673393e-06
4.440961100012920055e-06
4.561111999258658719e-06
4.629344643532223128e-06
4.360181649986750202e-06
4.172566052346039818e-06
4.314280822284146123e-06
4.281316868895817577e-06
4.254326584348933478e-06
4.309914044219925894e-06
4.383113422649268751e-06
4.499429144860545150e-06
4.429188821589084187e-06
4.572167513002893706e-06
4.177469137857450166e-06
4.183688508881559378e-06
4.181068710721651613e-06
4.304120507999241343e-06
4.273191872390352770e-06
4.241516194907307862e-06
4.185714010666433035e-06
4.354086479317818759e-06
4.306628675599736942e-06
4.491287547831278479e-06
4.405552459943319662e-06
4.270324854862863316e-06
4.239733304686383767e-06
4.187118767893332723e-06
4.337531961072720084e-06
4.276736261198695502e-06
4.221765064430223571e-06
1.129155277173375194e-05
1.133082470178674509e-05
1.112264782773142395e-05
1.112967811065447773e-05
1.117291465904925933e-05
1.108524328446679061e-05
1.107100408375344264e-05
1.127432679277930714e-05
1.128948486675581853e-05
1.114554033368058413e-05
1.121180809865942818e-05
1.117934520704525870e-05
1.126503695265004266e-05
1.123048504693446417e-05
1.123540373150224661e-05
1.121387977344387206e-05
1.108185294053730573e-05
1.103239817582242100e-05
1.099972726995917125e-05
1.121762048960723630e-05
1.109110801636528450e-05
1.113221289677738237e-05
1.116106586952212585e-05
1.101510732053225102e-05
1.095444607510142632e-05
1.090864626550746808e-05
1.112008653826000071e-05
1.101757675192650605e-05
1.105093619867491136e-05
1.092290334459930664e-05
1.084782551521658214e-05
1.078871848909528886e-05
1.098798905255217418e-05
1.088646565494770705e-05
1.081113155303768971e-05
1.070120868750267085e-05
1.063130591333718341e-05
1.080882145327091625e-05
1.067147510748736734e-05
1.051457181228402530e-05
1.042749525191166531e-05
1.056638249197376970e-05
1.045571496531452925e-05
1.028836993861082049e-05
1.018281883368513379e-05
1.023777465179406639e-05
9.992169161791991118e-06
9.872164961631854771e-06
9.792621738478721774e-06
9.597721431577185139e-06
9.478548214856887067e-06
9.303786700820885258e-06
9.146968675147114190e-06
9.001594709639599345e-06
8.823702479788586084e-06
8.658825417306315262e-06
8.722038482543766492e-06
8.374110839982040722e-06
8.304329108059408748e-06
7.908612223566069524e-06
7.854315541110074329e-06
7.730943514326733690e-06
5.755003181957582137e-06
5.709780813650766642e-06
5.741336187762790085e-06
5.680104620473427332e-06
5.695564469913541882e-06
7.265157224490417005e-06
7.255558870726787857e-06
7.250423057456408630e-06
5.627348667839807687e-06
5.632701051530387448e-06
5.663487637024140450e-06
5.710483918562781505e-06
5.771645313484337973e-06
5.637843189839064391e-06
5.560815098688063186e-06
6.742246405203973257e-06
6.745235889731431033e-06
6.843146877435464161e-06
5.569524219333451114e-06
5.613363046938651741e-06
5.634631320496087208e-06
5.707442466861457360e-06
5.786818331750493128e-06
5.700414035914349059e-06
5.806687011288710573e-06
5.337811327033879690e-06
5.380552811447083280e-06
5.339605972231541267e-06
5.412078156466817845e-06
5.485813544174598965e-06
5.472169394318700841e-06
5.359428295595411359e-06
5.434816149614624117e-06
5.361783143537203971e-06
5.397041770706455826e-06
5.566081633461232022e-06
5.493496360513943522e-06
5.278020715233168671e-06
5.316991809248308891e-06
6.369248329984514250e-06
6.496186865190408614e-06
6.188231012163304296e-06
6.346518614479214928e-06
6.056321759663344309e-06
6.202043970291331181e-06
5.890511894903194539e-06
6.068702193587076663e-06
6.310263114710704040e-06
5.537709260491199134e-06
5.607628978608689926e-06
5.693142059824518773e-06
5.832762864878072733e-06
5.600842992492061674e-06
5.285311703869247049e-06
5.401586390992653215e-06
5.294954540011538251e-06
5.692094578351922411e-06
5.866639245678219105e-06
5.760249203121278390e-06
5.958779085845710585e-06
5.434245583867416230e-06
5.374329397391561480e-06
5.951330083461420409e-06
5.656534067931451624e-06
5.531711943725967938e-06
5.464768624471304665e-06
5.515836943549652020e-06
5.308143123155146674e-06
5.686090111878221431e-06
5.907279579243522716e-06
5.680852222226538761e-06
5.549794765805470907e-06
5.426806215889463860e-06
5.325890339391084336e-06
5.349998194289394348e-06
5.382664857738185867e-06
1.053065562992404149e-05
1.055729910341643141e-05
1.058143764478904825e-05
1.053476368198550440e-05
1.057452734890716788e-05
1.049439228405053252e-05
1.051564061103168644e-05
1.043889207829722595e-05
1.046238486735236426e-05
1.048489614710628303e-05
1.053821956537412333e-05
1.050244088731722676e-05
1.037008730761097571e-05
1.039237947177240806e-05
1.042119057128435664e-05
1.036783020835374337e-05
1.042562744880255971e-05
1.046666388946338194e-05
1.028786304685283872e-05
1.030085818165097759e-05
1.019815389402131884e-05
1.021064572502966042e-05
1.027905812757863512e-05
1.032205752701927298e-05
1.036955943430379495e-05
1.008946103421602519e-05
1.009691643464060843e-05
1.017370418248684132e-05
1.017333142482663484e-05
1.023774458236987343e-05
9.917356376573034150e-06
9.887957782219861360e-06
9.993052793718097855e-06
1.005891500929254154e-05
9.686392779582408293e-06
9.635944663291574422e-06
9.714902937717132721e-06
9.512747626800326878e-06
9.816127519584874880e-06
9.441543808980441306e-06
9.543397616173184998e-06
9.442008888670749752e-06
9.358363047413460861e-06
9.231125655830384525e-06
9.208909580315130625e-06
9.164780921782177798e-06
6.603955366742456441e-06
6.584313369080226204e-06
6.568849608005692977e-06
6.525230286119987058e-06
8.924143090669197596e-06
8.867502551605678377e-06
8.957361884969833459e-06
6.590060871895787165e-06
6.788998183573214728e-06
6.692258119744716958e-06
6.883993413013548506e-06
6.775986332194271219e-06
6.481286369183182833e-06
6.540749935024839549e-06
6.996012918817007403e-06
6.868073747316132280e-06
8.577369097110418636e-06
8.538870000279497277e-06
8.689403890235781471e-06
6.785833445094626695e-06
6.590916330206445244e-06
6.660160973738915100e-06
6.501583388807449427e-06
7.280410366787671514e-06
7.386783292790968794e-06
7.494177376151533619e-06
7.222263958483816953e-06
7.287536654816660337e-06
6.902878843183281863e-06
7.099716657092675297e-06
6.994435106869001148e-06
7.185535293973428982e-06
8.218678534627434608e-06
8.240553907928870002e-06
7.886122838460530777e-06
7.968827630541308588e-06
7.358903453346318418e-06
7.720804122195144712e-06
7.125577640928704929e-06
7.605256981202591186e-06
7.053713658800446246e-06
8.239417861768775296e-06
6.721953452454628309e-06
6.566329193840906828e-06
6.529035102367933475e-06
7.060175442568418649e-06
7.066455501852899776e-06
6.801167233286078848e-06
6.873201612261164002e-06
6.922814443315267363e-06
7.845965365732089273e-06
7.499425870469281420e-06
7.193211177826091120e-06
6.617058769254051832e-06
6.792209954045112402e-06
6.685627551934552291e-06
8.164944054303862367e-06
8.241669266358874637e-06
8.313442210203025656e-06
9.060402016079747525e-06
8.879127273120017343e-06
8.707115502190260268e-06
8.543947004881942024e-06
8.388948380132299777e-06
1.230545882641240224e-05
1.233479027898353372e-05
1.237200336042155792e-05
1.233410309136941276e-05
1.240844758826631638e-05
1.236544146607770816e-05
1.244432221146096106e-05
1.239750633662956613e-05
1.248096407702430015e-05
1.243351634414936372e-05
1.251841461856822247e-05
1.229718801631929279e-05
1.223910829329734643e-05
1.240169822748635935e-05
1.246810075361746476e-05
1.255875641796905029e-05
1.200918022392558941e-05
1.204273926597917638e-05
1.208835297764768052e-05
1.213327372660608948e-05
1.202706189963413923e-05
1.195786568882435062e-05
1.199638965601207169e-05
1.185974376704660140e-05
1.190153898708890158e-05
1.194929359365414919e-05
1.192437394357593809e-05
1.220826911166898317e-05
1.225834526244430614e-05
1.216374442686768203e-05
1.221827514946194121e-05
1.212092348019266856e-05
1.217647093537626340e-05
1.207679580400583580e-05
1.181552882272435075e-05
1.185300954254150896e-05
1.175594620746040473e-05
1.180346619682353999e-05
1.260834786961236496e-05
1.245411042539639779e-05
1.253842133888030376e-05
1.265910866243784989e-05
1.259205437860429490e-05
1.270158499586363602e-05
1.171415228504347908e-05
1.175277799288859786e-05
1.144474558300330995e-05
1.148073903556415219e-05
1.153779025430074021e-05
1.122810635031304016e-05
1.123968984995639852e-05
1.130197283211756063e-05
1.128500037447683152e-05
1.136300167646109343e-05
1.133878140162423993e-05
1.142259100343141018e-05
1.138531928553674915e-05
1.058000307498924158e-05
1.060441610991025332e-05
1.066861876502333153e-05
1.065836602186812044e-05
1.072953548702485620e-05
1.114214063977921710e-05
1.117596007182760955e-05
1.164925817886727716e-05
1.170072152991640930e-05
1.149508872801380838e-05
1.159340678223168900e-05
1.164774005467435524e-05
1.153661509660360111e-05
1.158763136085058124e-05
1.052525065388979316e-05
1.053544249444625608e-05
1.069420967196807572e-05
1.079081629199522560e-05
1.099668159673019051e-05
1.104522791409108989e-05
1.111072471470352678e-05
1.106954285365538410e-05
1.047336136471214337e-05
1.046141799115655631e-05
1.075527266466321845e-05
1.085303927965353078e-05
1.091610103676022681e-05
1.081138551555118596e-05
1.087207216881203895e-05
1.098025538471198590e-05
1.093608487566174923e-05
1.027271987655016444e-05
1.029670266732414475e-05
1.038232441201999309e-05
1.018528277944107634e-05
1.020338768034788723e-05
9.857991286987296777e-06
9.885626002901750365e-06
9.993064554147718356e-06
9.957607341868296455e-06
1.010127075861792766e-05
1.001688214055513585e-05
9.754132659620916990e-06
9.778633284246432267e-06
9.647486202318248158e-06
6.714937809527064671e-06
6.702743985494231867e-06
6.801765435202437396e-06
7.836646306585592534e-06
7.812301636823644826e-06
7.691226863292860669e-06
7.706793783853392951e-06
6.848312243596990284e-06
6.910956814222341731e-06
6.612767303365183119e-06
6.612416283211104629e-06
7.563818020997392354e-06
7.573675130842507465e-06
7.460103097462152673e-06
7.435980476221081896e-06
6.934107703355315833e-06
7.031177629232672084e-06
7.176726819779719475e-06
7.162702729722938486e-06
7.298478350245031498e-06
6.526441027913801756e-06
6.523464202696528579e-06
7.292383038374859868e-06
6.437845730231910932e-06
6.433637523361648729e-06
6.343106293430639332e-06
6.341349681800105492e-06
6.159561953953566628e-06
6.251674240927393872e-06
6.158486774767464448e-06
6.245611694624679424e-06
6.066577602421799890e-06
6.067621495227965242e-06
3.510399685403418827e-06
5.977370725438739500e-06
5.972980069715152292e-06
5.882045671050971841e-06
5.878969848869873884e-06
3.055623031635120786e-06
5.810461972935441387e-06
5.784453076664272764e-06
2.193753449861486801e-06
5.695664938515773636e-06
5.689794121509211952e-06
1.365828444728615163e-06
5.620175958705013712e-06
5.594557211243323427e-06
5.541438632701723978e-06
5.499113394927995416e-06
5.402473280242965474e-06
5.403339584387770858e-06
5.320294195068703611e-06
5.307330091779466808e-06
5.228418204434794041e-06
5.211702346305176913e-06
5.134547856299718043e-06
5.117059191405050712e-06
5.023252482258833829e-06
5.032032648957664885e-06
4.930284846536212007e-06
4.937700732063012341e-06
4.849960677872568152e-06
4.838252499671203805e-06
4.762297556069949830e-06
4.747022439854440475e-06
4.686363711362846792e-06
4.656727454768058651e-06
4.566520452081297689e-06
4.565675358129487562e-06
4.483401630135931333e-06
4.476109172965011969e-06
4.395186860781377785e-06
4.385439385463141111e-06
4.303199434428724884e-06
4.294704150570755955e-06
4.224164038105145089e-06
4.203688695926444246e-06
4.135740519691389139e-06
4.112431283270266066e-06
4.044823618448557017e-06
4.020755038442067620e-06
3.950466175455725251e-06
3.928809563993144056e-06
3.858405228824911933e-06
3.836596600852899694e-06
2.695887718437898685e-06
2.626363174735694271e-06
2.755732052415300624e-06
3.764467645738803279e-06
3.744062743909381270e-06
2.804428826706257715e-06
2.906884627835677938e-06
2.953625698535651589e-06
3.051446100416176151e-06
3.651366016665511099e-06
3.671580300691354891e-06
3.600125376625140166e-06
3.558295876068643717e-06
3.168152429979541644e-06
3.071420356362769472e-06
3.477906364672341704e-06
3.465111791677579952e-06
3.212634342581124546e-06
3.273694116134246182e-06
3.322864163512513065e-06
3.371660000555234336e-06
3.399488220303128803e-06
1.226333569309937026e-05
1.239251137851299695e-05
1.243837024054426423e-05
1.239647693304858908e-05
1.221787665642614606e-05
1.218503544885454450e-05
1.235055055754105677e-05
1.240520185611638508e-05
1.232887870000805110e-05
1.237208392532763797e-05
1.197134408247638962e-05
1.188613516621163233e-05
1.216776563803404889e-05
1.198395869805102680e-05
1.213506394593204376e-05
1.225853166919570276e-05
1.231683377613024581e-05
1.235630527231478649e-05
1.195107327950473928e-05
1.195990823792994790e-05
1.196420771516673831e-05
1.212281376955970293e-05
1.211028409686915557e-05
1.205278101607682990e-05
1.201804139549673346e-05
1.193273945603699087e-05
1.193852550755650193e-05
1.192080145801355619e-05
1.206469120872126651e-05
1.169995653314762723e-05
1.167069558651727434e-05
1.140741009723282896e-05
1.218785489698172780e-05
1.258450859798277179e-05
1.226481873742209046e-05
1.237367968775021487e-05
1.247638600551272730e-05
1.216527547967719258e-05
1.191790702296304864e-05
1.203371872643614916e-05
1.196729744600845256e-05
1.193972223305560843e-05
1.188053464063869787e-05
1.188569656117564763e-05
1.187734936797370907e-05
1.199079498895128710e-05
1.138161847356559439e-05
1.138699318494409132e-05
1.118534461855897922e-05
1.115960444089846041e-05
1.124005141796208249e-05
1.060887456512012127e-05
1.062643782165586724e-05
1.111087468076495149e-05
1.165802389373516126e-05
1.162196754127277739e-05
1.160398289870307694e-05
1.162155834886099791e-05
1.142381575971723689e-05
1.208734364624277872e-05
1.244073340426913180e-05
1.221501836115447080e-05
1.229912279293061413e-05
1.207885301428534476e-05
1.188156325063782870e-05
1.192799581372371504e-05
1.184410892634563032e-05
1.180528209133818957e-05
1.181936610666422074e-05
1.182228296119672489e-05
1.188725003905264248e-05
1.135385306814539262e-05
1.137314469585588744e-05
1.131910252619366712e-05
1.134980083496015039e-05
1.063003938811101131e-05
1.059374990693107924e-05
1.105658249713816090e-05
1.156675824497701999e-05
1.153914267222417233e-05
1.153112858997021003e-05
1.141820440484328620e-05
1.147478216329765035e-05
1.134122826594837650e-05
1.129798895585805786e-05
1.196343183003119299e-05
1.226030833579316463e-05
1.208925182898013971e-05
1.195378935823406607e-05
1.180519051635581225e-05
1.173351924649540089e-05
1.174631473998187539e-05
1.173971474774244454e-05
1.176643203286660010e-05
1.125461042217804262e-05
1.066894328445246587e-05
1.060246451989438152e-05
1.055309671376773717e-05
1.090621883465235788e-05
1.093649909005942964e-05
1.096606133921969533e-05
1.148153360617887666e-05
1.141964774635234462e-05
1.141789368561118705e-05
1.135700426042492218e-05
1.129346508622719217e-05
1.123384299350247129e-05
1.180527767179473996e-05
1.203391257718545139e-05
1.182434591344160192e-05
1.167883234562568356e-05
1.163184001846890501e-05
1.164093232249612238e-05
1.161260413103335304e-05
1.117088911267537362e-05
1.049020066915228609e-05
1.071495184380965065e-05
1.063967194923360974e-05
1.057877738505820288e-05
1.052133798507116051e-05
1.075678943206824869e-05
1.083161955845924918e-05
1.082380408361570329e-05
1.085624792469451632e-05
1.134875576163285518e-05
1.127335950129907111e-05
1.123752664614741833e-05
1.115910810609354631e-05
1.163836430232502404e-05
1.174954247416637213e-05
1.152303280111548820e-05
1.152296404514733668e-05
1.150544239337213793e-05
1.140982373337319935e-05
1.105788829929502459e-05
1.045154224500221800e-05
1.041003678377903440e-05
1.062907737332464866e-05
1.052230273192022241e-05
1.044410773863322785e-05
1.068650779213183854e-05
1.072077901270892974e-05
1.118129576602306904e-05
1.108782746163742484e-05
1.139252226126137822e-05
1.125003311186044085e-05
1.130079243111664622e-05
1.116614683588613143e-05
1.092431203776180036e-05
1.036169868378165537e-05
1.028633825600455360e-05
1.050296939216143601e-05
1.037007427142828568e-05
1.054902661358846937e-05
9.723686378756445418e-06
9.812944726225322973e-06
1.097587765560345016e-05
1.089749243396463525e-05
1.094451931073564806e-05
1.092601287079460285e-05
1.099123680683129910e-05
1.090976649440791575e-05
1.074451008753497930e-05
1.023627041807696712e-05
1.010457973227450004e-05
1.032969994368887228e-05
9.362942204715006726e-06
9.538796588370520118e-06
9.436293448797565086e-06
9.614893396665999371e-06
9.530779210304324593e-06
9.610010800133488688e-06
1.075513241982381548e-05
1.042929951504721221e-05
1.038198447051698960e-05
9.255011070304771810e-06
7.919654422357609482e-06
7.974660891608690341e-06
8.051445509867137616e-06
8.124769401416817268e-06
8.197912971466289562e-06
8.278842399650079579e-06
1.066586334857684749e-05
1.051820681917358649e-05
9.882085746371884280e-06
1.003929269125764076e-05
9.307888282736750016e-06
9.411150544298197053e-06
9.168866117995531603e-06
9.431045150683862728e-06
9.599422909973165402e-06
1.028280578316736053e-05
9.926683893131341022e-06
9.675736949829317731e-06
6.667335068708742366e-06
6.770363236853566592e-06
9.054527390528545089e-06
8.826881180753227494e-06
8.628887127584267317e-06
8.504771338366119276e-06
7.800252318728678437e-06
8.003272189009818710e-06
7.935298851714806266e-06
8.322755554717795718e-06
8.064088694496989246e-06
8.181094753968851777e-06
1.021043977273905527e-05
1.003251955147173844e-05
9.673800186498593306e-06
9.206660850589472623e-06
9.020804366742231307e-06
9.360871474639344801e-06
9.298918267535845228e-06
9.776725191894723797e-06
9.248452308270958060e-06
8.801714702556161107e-06
6.548792101128496510e-06
7.659557215777456623e-06
7.560589899955336245e-06
8.803000476300809211e-06
8.535623911732303270e-06
7.613038258880023475e-06
8.314433014138770335e-06
7.835276049642897174e-06
8.041819914799554052e-06
9.655195661937068040e-06
9.069534121165828455e-06
8.906654475515487230e-06
9.480852680995004115e-06
9.101058209426953215e-06
7.800494981746804816e-06
7.178566468136394423e-06
6.783816009959960341e-06
6.035956610830666832e-06
5.812850656251731851e-06
4.853506215855479119e-06
5.025677789379756860e-06
4.469489564026151284e-06
5.321341255112091711e-06
4.721709614642711212e-06
6.501974449063414524e-06
6.461683577688532265e-06
7.466034381867928677e-06
7.390575691443598812e-06
8.737850891829492236e-06
8.580217648883435978e-06
9.003936839288376396e-06
8.571527779129866332e-06
4.232311869573302261e-06
4.004097658802568054e-06
4.245456922506699832e-06
6.447586349166526926e-06
6.407710496073428897e-06
6.406222360174735669e-06
6.423769765425984440e-06
6.361882157549769690e-06
8.293658595797174620e-06
8.144427939847512501e-06
7.825840686268121599e-06
3.709713875073178000e-06
3.328989488674930042e-06
3.038719889547322048e-06
6.353263459152519633e-06
6.335503741673362041e-06
6.305557479601682917e-06
6.317836686216987165e-06
6.365679632524023402e-06
6.428307444969616655e-06
6.078245548147376261e-06
5.902467976637180226e-06
6.877208599264052725e-06
6.832502128465488127e-06
7.495884718742108786e-06
7.773522992390776700e-06
7.057401056956331529e-06
6.948962939727477008e-06
2.638656124379852680e-06
2.830660893879453319e-06
2.560888016928555693e-06
5.829415736654120295e-06
5.802839240053919354e-06
5.971651446709123475e-06
5.862531262726442024e-06
6.238800228402581916e-06
6.147947912362881819e-06
6.266682507257640143e-06
6.246884053001409386e-06
6.259064231018347032e-06
6.297037836661190156e-06
6.332497011927070145e-06
6.459871637443830974e-06
6.437159355617036411e-06
6.032585364068495650e-06
6.669476292179626279e-06
5.745846631840589110e-06
7.344458202232934423e-06
6.985035674869403572e-06
6.626990928462192371e-06
6.568599630283506821e-06
6.786958242984100159e-06
6.350750092915809531e-06
5.943117366307848622e-06
5.151660453671361448e-06
2.348756640754029270e-06
5.901347657177841467e-06
6.137307233079732023e-06
6.177047313389792175e-06
6.416227407382612908e-06
6.337731294987872208e-06
6.209880127270397535e-06
6.273900219112936839e-06
5.956759940831904335e-06
6.467627929090441636e-06
6.417782365461014697e-06
5.991723646286892778e-06
6.240649454562631522e-06
4.775780641398122905e-06
5.299514207988905261e-06
1.937119171750765781e-06
2.119185870461419252e-06
4.316653290459726570e-06
6.222769233882194601e-06
6.029954244820493191e-06
6.179639354764588178e-06
6.076864754336986176e-06
5.803803622176497135e-06
4.702238173951329743e-06
1.817782449948548528e-06
2.064980408368148686e-06