<?xml version="1.0" encoding="UTF-8"?>
<VTKFile type="UnstructuredGrid" version="0.1" byte_order="LittleEndian">
<UnstructuredGrid>
<Piece NumberOfPoints="4497" NumberOfCells="8293">
<PointData>
<DataArray type="Float64" Name="Current_density_norm_@_t" Format="ascii">
9.568053854411911303e-07
-1.357452412950676624e-07
6.850280619884870733e-07
1.957413767847855161e-06
1.344979227680506447e-06
2.050482333270052177e-06
2.795230312724111304e-06
2.407779094999831153e-06
3.538910394096460452e-06
2.358357899811060310e-07
2.571115151755712892e-07
1.821239303820411953e-07
1.542042586763441721e-06
1.570281067751495316e-06
1.494076739441326425e-06
2.923551878363201355e-06
2.962603686429394296e-06
2.874345779844152077e-06
9.874597850615988520e-06
9.951655957545286937e-06
9.880900711098176473e-06
8.195702969771691290e-06
8.168504340600710561e-06
8.325412338541770339e-06
8.068837443805739374e-06
8.037529275597791933e-06
6.437162511811604128e-06
6.519977616093170609e-06
6.391131961892273713e-06
6.342648012049114513e-06
6.229622968707914483e-06
6.533123462927593354e-06
6.658043451313556985e-06
6.858755914424204518e-06
7.004010478957118731e-06
6.824744252521331915e-06
7.024748465427327908e-06
7.182127476893094130e-06
7.227474491225734014e-06
7.358144281901435248e-06
7.392066237584395293e-06
7.530352397754612277e-06
8.318010366853438567e-06
8.445126522613566217e-06
7.536552008552419168e-06
7.698564730218226216e-06
7.720171488983529893e-06
7.867054865035020251e-06
7.870959349536635534e-06
8.443676365537298268e-06
8.593499138544543101e-06
6.649242864506298977e-06
-1.051092400335011213e-07
7.538482947935148076e-07
-5.487558266418006738e-08
1.739559095858435698e-06
0.000000000000000000e+00
1.306843548014265650e-06
2.503223092989094280e-06
5.442282631877536894e-07
5.959431600185402305e-07
5.268142915851913911e-07
5.829000145914214949e-07
1.934909300005868411e-07
1.299876325708286860e-07
6.454584570923617152e-07
4.844141518144435177e-07
4.497545259688392666e-07
5.311574831061469145e-07
5.980576224973989749e-07
1.746865236959651749e-07
3.978170509986387595e-07
3.535450695277421763e-07
3.047548241789734577e-07
2.419050655997817193e-07
1.096182050734746539e-07
6.639056757312164928e-07
6.000035193038721494e-07
4.533315276489730106e-07
5.221912801863078386e-07
1.813969416137358180e-07
3.439370283572804694e-07
2.590380817693769096e-07
5.377690005428485426e-07
1.188477998028414305e-07
6.755031802117478888e-07
6.022989708802717999e-07
4.414854635014801631e-07
2.099991609819280508e-07
3.154332795798064362e-07
5.099857788276986395e-07
1.310104303955627233e-07
6.902282619196258931e-07
6.045724221654774329e-07
3.882013012087736134e-07
2.528598666377857853e-07
4.847788695037333565e-07
1.472822969146570898e-07
7.093775232560489854e-07
6.122720061600396096e-07
3.250858620448828258e-07
4.955829860276953042e-07
1.688097260479377233e-07
7.343533245156234671e-07
6.016484888825871671e-07
4.009389962662616834e-07
1.976303100183235094e-07
7.666621766504567333e-07
6.112823548391323742e-07
4.786805882226058282e-07
2.359688767589704394e-07
8.086999224996299182e-07
5.316222822051220096e-07
2.870509909383588327e-07
8.632837569210541023e-07
6.068672775073090519e-07
3.549563314584736046e-07
9.343144239211974682e-07
6.941986477956569294e-07
4.430706218775296132e-07
7.992981402320469456e-07
1.026652049316112556e-06
1.144436629244903692e-06
5.464772614128220185e-07
6.557294604943716889e-07
1.278879043941305223e-06
1.422651238743024383e-06
7.707038742005472892e-07
1.388390647408129456e-06
9.018034942038382246e-07
1.686749237175088564e-06
1.609666110590041997e-06
1.172031932114790925e-06
1.808930956989421951e-06
1.369766049811265688e-06
1.574525036834941020e-06
1.914266852959646048e-06
1.998633174737776784e-06
1.771409650984731023e-06
1.973107404277016167e-06
2.660517307091010701e-06
2.170906655182022236e-06
2.609829586592391495e-06
2.469942280364160546e-06
2.317788392263420359e-06
2.388851933905629552e-06
2.423772009434501207e-06
2.948742546486524922e-06
3.042071541606332502e-06
3.135503341015896302e-06
2.972094822248555838e-06
2.904707430505855663e-06
3.285952553398253831e-06
3.415040662774300589e-06
3.597560968817012776e-06
3.825300188454199265e-06
3.523322950624039488e-06
3.664659627362541554e-06
3.951175821613920827e-06
4.105514313866555842e-06
4.325659943487956201e-06
4.174616241017491824e-06
4.473388037925840823e-06
4.526410936370791477e-06
4.846008371743576172e-06
5.005987074707732796e-06
5.076745073741232976e-06
5.631367456523946302e-06
5.888023637331804276e-06
6.176649452585361283e-06
6.730284697039872842e-06
7.176876575013657662e-06
6.704826399212728406e-06
7.721296904482710392e-06
8.099083896570032968e-06
8.776833630675146030e-06
8.937579467225684242e-06
8.613261541662286922e-06
9.459562284427230723e-06
9.721894954748219091e-06
1.044499237717261148e-05
1.040902563913231347e-05
1.079103685475283501e-05
1.094743196864166168e-05
1.026202847121701302e-05
1.094481817965245910e-05
1.119300009454807177e-05
1.136167882413035863e-05
1.186555053864181581e-05
1.192576990841904660e-05
1.168047813007176771e-05
1.147209446724163412e-05
1.164087439820374392e-05
1.196552259100920845e-05
1.208444735564767508e-05
1.211450258335242538e-05
1.186811153870810521e-05
1.216522643083978611e-05
1.224042885446052038e-05
1.221561953792256671e-05
1.226390664759944234e-05
1.225961913448684199e-05
1.235428387942779833e-05
1.238839125404596221e-05
1.236299479025828406e-05
1.240664031645774006e-05
1.237130823709270750e-05
1.245030539283390660e-05
1.244358826949337580e-05
1.255590546250441410e-05
1.248542913958613734e-05
1.257116625212922588e-05
1.253851927102821596e-05
1.245734356670232414e-05
1.251873765701730807e-05
1.251031994014406359e-05
1.268169863914201597e-05
1.268350074076488973e-05
1.261718033931272543e-05
1.271459480186623379e-05
1.259422624726055546e-05
1.262551621836137203e-05
1.252554377903226969e-05
1.257574305098243183e-05
1.256494213466191509e-05
1.277605336881069247e-05
1.277542714927858641e-05
1.278920751587659242e-05
1.263750155268129172e-05
1.270783129204046882e-05
1.266925079572952608e-05
1.259380442481109289e-05
1.261739382065493490e-05
1.284747754574236126e-05
1.283101190177014388e-05
1.266919577397492771e-05
1.285011669309522545e-05
1.284481438843044385e-05
1.280233104204015865e-05
1.270584120249592649e-05
1.274716593048210784e-05
1.266491247417085057e-05
1.289334664247730251e-05
1.272056793290351729e-05
1.290520308685799365e-05
1.287999286167721530e-05
1.282941256133242790e-05
1.277109883143325153e-05
1.883676675158797977e-06
1.936114439478171644e-06
1.858164415195287296e-06
1.498585400274055727e-06
1.437873122752885175e-06
1.473707289507797567e-06
1.801297771428594096e-06
1.767477256673947794e-06
1.609373894505315883e-06
1.665283002649577633e-06
1.706497801138094804e-06
1.839822511064153186e-06
1.962028572717385987e-06
1.904183362434432943e-06
1.411810321838032627e-06
1.537383107558455295e-06
1.474997541909654662e-06
1.751868572772682127e-06
1.632849405785558921e-06
1.835434600780863980e-06
1.989016698560138804e-06
1.919510940186116309e-06
1.429467579159338604e-06
1.761410980020781321e-06
1.529935213981840888e-06
1.664493058595189643e-06
1.832675617141018498e-06
2.013338224369948010e-06
1.933913740515239658e-06
1.453433643851568483e-06
1.723090843385081924e-06
1.588271133994548712e-06
1.817874721234376648e-06
2.045880453824031240e-06
1.945152116795939890e-06
1.485541584889966164e-06
1.673632282480586541e-06
1.827359007618205009e-06
2.089065573926529941e-06
1.941023533154936994e-06
1.528958647735215826e-06
1.745977805763941291e-06
1.919669695254771724e-06
2.146535193842388436e-06
1.587640644362798930e-06
1.874501448602428224e-06
2.223012128126199957e-06
1.666801147287648896e-06
1.999072780970959789e-06
2.324819571894293270e-06
2.116469784690991330e-06
1.773688724144665418e-06
2.156507711850364474e-06
2.459315293577758421e-06
2.258226653845457308e-06
1.917835575023069434e-06
2.637377958626271836e-06
2.366715566423876108e-06
2.110007614629904528e-06
2.910152439284373156e-06
2.657920854267377432e-06
2.392507412844083324e-06
3.218960047222545656e-06
3.071626427925373535e-06
2.695058845783374966e-06
3.405577652666529259e-06
3.786379279441050247e-06
3.765012108808832436e-06
3.250069017531540458e-06
3.933868478938054199e-06
4.374651855577457267e-06
3.820282242394339829e-06
4.459349752779775856e-06
5.016408305051247085e-06
4.444592398398475143e-06
5.072229870233746837e-06
5.750416445007033205e-06
5.168698214466762416e-06
5.614064209866489547e-06
6.086783849157614269e-06
6.632780484537587440e-06
6.061435547438245939e-06
6.620868480845973744e-06
7.308841037170189998e-06
7.756130694925900091e-06
8.523014107906174482e-06
8.576098086691174628e-06
7.245734473000134617e-06
8.147215294655813037e-06
9.146885884390496246e-06
9.300248245732324259e-06
9.658112369461800022e-06
9.956276309088245803e-06
8.988589238081398950e-06
1.002520789382115938e-05
1.032838309031871768e-05
1.045168430243457220e-05
1.166223640782351799e-05
1.168924737305015413e-05
1.159911172397391415e-05
1.173154953538484523e-05
9.835138263655034786e-06
1.047052527933132611e-05
1.067748805930245327e-05
1.082656479373771943e-05
1.156589907930484655e-05
1.147939253280628067e-05
1.144477262944039256e-05
1.132014221360859229e-05
1.166023103854479541e-05
1.173242763985307620e-05
1.176029324698412538e-05
1.177737393593362692e-05
1.175470637371901960e-05
1.178050522228824595e-05
1.129224654142435357e-05
1.110837010266367614e-05
1.111026246917671000e-05
1.101337637299320768e-05
1.094139087274524489e-05
1.156335213764035397e-05
1.144703796497658485e-05
1.169393033829051420e-05
1.183228033309596450e-05
1.180971186437229092e-05
1.184587197757311673e-05
1.183291943275258709e-05
1.181767388482696766e-05
1.132345323748613822e-05
1.129008779697770123e-05
1.157631840530260949e-05
1.177099892484453373e-05
1.190266651758798567e-05
1.194762832547144828e-05
1.190873292584254019e-05
1.188394009073307928e-05
1.193541623090852998e-05
1.189035648107665194e-05
1.154859167138270708e-05
1.188194308978495013e-05
1.174009751897508415e-05
1.200693416519448081e-05
1.200722309019708477e-05
1.198475318393074025e-05
1.198713085576681700e-05
1.199132358220608827e-05
1.204608966114142426e-05
1.195596256916038529e-05
1.202557051417562305e-05
1.205348780131032914e-05
1.204297335375964704e-05
1.206501959332807442e-05
1.208113850315919630e-05
1.211187286686668630e-05
1.210606027142388112e-05
2.866688702272714016e-06
2.814330742808550779e-06
3.285069973869750717e-06
3.343033255439681297e-06
3.280106382222722032e-06
3.319916186343433135e-06
3.374401077424902885e-06
2.835130489477610675e-06
2.782256810388394520e-06
3.219737723628366736e-06
3.195542274304097510e-06
3.119867060349965982e-06
3.079713604549072311e-06
3.018228186053573701e-06
2.884492505879821061e-06
2.947518224048146394e-06
3.263928463763713507e-06
3.335176359190564796e-06
3.412640647607262387e-06
2.810166653231424494e-06
3.170358289522776832e-06
3.032926397016141213e-06
2.918351688687894050e-06
3.251264039585250849e-06
3.350995342111677079e-06
3.454735947502744752e-06
2.847805384652332385e-06
3.131104650647522072e-06
2.987845099447816810e-06
3.245444537136834331e-06
3.374492803220042100e-06
3.509758674835635759e-06
2.898834652951472121e-06
3.097802984127962151e-06
3.277058649350282601e-06
3.406346015403761603e-06
3.582215707591987617e-06
2.967776012331591802e-06
3.217269231643965664e-06
3.460428205018578474e-06
3.676196749604459244e-06
3.061481346013089333e-06
3.310356659688536256e-06
3.494743763172669582e-06
3.788693646167604809e-06
3.188283977541042546e-06
3.586725375893297610e-06
3.931716943353731261e-06
3.360127306175855449e-06
3.783603556344343729e-06
4.162692621126173385e-06
3.611618431327143093e-06
4.048655422068459910e-06
4.442467976285465467e-06
4.318071482416776522e-06
4.698119207834982071e-06
3.910967299764222324e-06
4.593972185129654255e-06
4.962498927071011377e-06
4.463595742842367423e-06
4.946818591470022823e-06
5.507506577477295263e-06
1.076792566028788889e-05
1.079237975249926539e-05
1.083711635086021891e-05
1.084199282680084397e-05
1.089792969529497258e-05
5.041066420965426612e-06
5.537909148339634479e-06
6.094005039483129570e-06
1.088936670700949515e-05
1.083044903834899441e-05
1.078554457659320198e-05
1.072946849299672991e-05
1.068377196427955437e-05
1.095159477239825751e-05
1.094877922163023657e-05
5.666869036829068885e-06
6.252259807087580498e-06
6.742091150094423506e-06
1.085919052490299395e-05
1.079668425511246021e-05
1.072244656178020105e-05
1.064339155813187848e-05
1.057790131306077544e-05
1.053045345717227915e-05
1.043875343786064845e-05
1.112367396224942081e-05
1.109096821421983500e-05
1.106496357442044528e-05
1.102280394054226800e-05
1.101443765864893732e-05
1.091527380062141996e-05
1.097638928395790600e-05
1.107468606028515689e-05
1.113808589910309145e-05
1.112364439731946918e-05
1.101834087233256637e-05
1.108580150783645634e-05
1.114277931080140665e-05
1.117819899536793738e-05
7.021991467413726813e-06
7.477413585888003316e-06
7.638450889322223879e-06
7.913922076695783126e-06
8.172412518179936669e-06
8.336250419143791416e-06
8.590121444190078004e-06
8.904813795336905685e-06
6.369131595177874463e-06
1.077521470436429082e-05
1.063830507958500814e-05
1.036978856123513944e-05
1.025588489361611278e-05
1.051463577243660043e-05
1.106064338817806737e-05
1.084241219333819169e-05
1.094912385938597021e-05
1.017118493431889086e-05
1.001910259157360320e-05
9.123236495315281854e-06
9.374245065264908986e-06
1.114101289961735237e-05
1.117770599761126660e-05
7.185755626911078438e-06
8.174260893193979166e-06
8.857659901242904524e-06
1.064372486024963270e-05
1.039975690879734081e-05
1.079816115323276743e-05
9.586608657619786076e-06
9.735104315832738271e-06
9.914532931963835222e-06
1.014371790600909916e-05
9.431860730661817250e-06
1.059351770265616544e-05
1.031631180674634240e-05
9.940761302869418535e-06
4.476983425921520165e-06
4.506298705785043919e-06
4.434254587427633644e-06
4.432821008292820258e-06
4.370270546392873355e-06
4.533969240698359537e-06
4.581915625562978279e-06
4.613892039754994786e-06
4.678240871791142409e-06
4.477574002727881296e-06
4.331302496734874867e-06
4.405185899435874229e-06
4.709593796213860281e-06
4.805211498747214516e-06
4.550638585438912772e-06
4.629752783275979903e-06
4.465389426432739842e-06
4.373627889791089585e-06
4.824663793309473651e-06
4.970833432528077667e-06
5.055464170213792353e-06
4.929923398035943394e-06
4.702152471233162460e-06
4.559047481676701893e-06
4.431059067845387670e-06
5.144656122642498128e-06
4.984837236531825815e-06
4.829831683846336430e-06
4.670206888821619612e-06
4.508935045970743915e-06
5.098197302145496872e-06
5.293162478647489813e-06
4.854156630222267006e-06
4.614631159434748016e-06
5.263675714738499960e-06
5.479164360299252806e-06
5.022693576122086869e-06
5.437889315425784352e-06
4.757945661751674132e-06
5.643376333856393143e-06
4.951973974112379263e-06
5.266630580846417231e-06
5.535780959297526749e-06
5.821052184216709386e-06
5.189762591973276631e-06
5.510364129371537880e-06
9.935683584708378914e-06
9.993639784621738935e-06
9.950770236585469711e-06
1.000215362455179373e-05
5.780252518960293405e-06
6.173896434833566675e-06
5.404917654311354489e-06
9.904368608874616615e-06
9.791861864866726410e-06
9.785869734142151914e-06
9.688836008884004725e-06
9.686345273666687903e-06
9.973647188251941659e-06
9.918076171935392906e-06
9.567248185119254031e-06
9.587755004377522335e-06
6.145758737604226103e-06
6.541013068245532938e-06
5.634244000760288022e-06
9.568136604231933010e-06
9.828570877504480471e-06
9.671158200369890640e-06
9.888241550778449317e-06
8.349652920405107242e-06
8.500902269643589900e-06
8.236614597386228767e-06
8.599537901400982590e-06
8.745092558547576129e-06
9.421984019143908682e-06
9.302911844935229921e-06
9.146104175915012409e-06
9.047931230116347821e-06
6.555402987655788882e-06
6.926214249659509363e-06
7.014179319094404949e-06
7.333774473058811222e-06
7.986012133916302596e-06
7.768636914006621583e-06
8.258006488073299048e-06
7.497987353537218162e-06
8.052455303059523280e-06
6.099602286953649877e-06
9.473310143888292399e-06
9.614947216964726706e-06
9.772264401134133968e-06
8.840615565157740544e-06
8.559477105024113566e-06
9.271855938583841334e-06
9.041068643148011808e-06
8.369029393686229718e-06
6.594574562089512941e-06
7.128949017820999266e-06
7.715148599812749126e-06
9.401597085552594368e-06
8.778173178583428653e-06
9.111826598920575604e-06
8.198603507803442795e-06
8.053997399370094824e-06
7.930112665558672639e-06
6.866351701411671613e-06
7.089130500321037894e-06
7.318353924646171190e-06
7.555035006831663339e-06
7.799911972067256403e-06
5.670771914817965699e-07
6.511892097437380593e-07
5.386122178930225735e-07
4.820624569071021734e-07
4.258599312757007979e-07
3.840279984807430473e-07
3.126474312022629797e-07
2.804753197395402784e-07
1.956126361429664254e-07
1.448992596209751457e-07
7.349017174226623775e-08
7.639784561075727609e-07
7.135327414110355501e-07
2.088004112337755073e-07
-5.321833997436011053e-09
-6.100334541807226317e-08
1.402819797634479415e-06
1.479634128443570310e-06
1.356453534340592644e-06
1.233577384568127496e-06
1.303379960937664866e-06
1.543481120572379802e-06
1.602729270249315259e-06
1.803755925733461593e-06
1.848629512961605040e-06
1.725698172779734473e-06
1.637027278123175334e-06
8.178672233737376598e-07
8.777416176876676814e-07
9.305352353434301896e-07
9.940534730763909727e-07
1.055033696025443498e-06
1.112517046580088969e-06
1.180926320147746864e-06
1.907659098084411949e-06
1.971436196392323527e-06
2.018140265199383138e-06
2.094896818055528247e-06
-2.315156061251087715e-07
-1.217712577351039670e-07
-3.157185378872034957e-07
-4.107387174041870646e-07
-4.555001088808465989e-07
-5.646538523166325235e-07
2.138563850905805278e-06
2.219317893752688383e-06
2.759568990416253347e-06
2.855251826469276536e-06
2.726278009378917445e-06
3.296036183334273867e-06
3.381733096165608436e-06
3.248604871574172401e-06
3.151334853349486553e-06
3.116587752610761982e-06
3.037892092833383718e-06
2.985480057624383155e-06
2.926746670481407327e-06
4.565934500219652566e-06
4.637262587303992047e-06
4.517461722003218097e-06
4.422336890554430267e-06
4.402907925435281411e-06
3.461988290425679515e-06
3.515783196609950860e-06
2.263817934348791519e-06
2.344500350056558040e-06
2.637687829433215811e-06
2.598145932929856592e-06
2.470917128115437684e-06
2.518017984801458641e-06
2.389697334493422984e-06
4.663296833102350109e-06
4.763820572047071852e-06
4.317372861989897834e-06
4.286017619430184091e-06
3.713174032814590008e-06
3.785055909199990007e-06
3.650731359699548822e-06
3.570272293793130007e-06
4.762566158244401400e-06
4.897560443241024173e-06
4.196331276816841635e-06
4.165876033752082235e-06
4.042295495468457179e-06
4.069304822630135832e-06
3.948968737782063192e-06
3.915475336367209464e-06
3.829005387513464863e-06
5.092133970726718805e-06
5.189558630233746686e-06
5.039253105180079850e-06
5.205321368543809935e-06
5.351193668859601235e-06
5.745618126699930845e-06
5.881675572948104156e-06
5.705806247644571713e-06
5.591466324611713622e-06
5.524652305265255050e-06
5.373842519844605227e-06
5.909060980033970477e-06
6.054223534659560435e-06
6.060165355093498693e-06
9.940486406635070551e-06
1.004079318889570931e-05
9.935484407521512969e-06
8.754894116330893489e-06
8.590386139887592868e-06
8.750794676069980054e-06
8.911456117468781162e-06
9.802341682062413146e-06
9.817946636255099038e-06
1.004574272870697542e-05
1.013573177471195963e-05
8.911347786393474798e-06
9.069364708777508723e-06
9.062579342724420779e-06
9.229856993294225029e-06
9.712620252083665006e-06
9.686550226785070163e-06
9.396556239113825271e-06
9.540411303802338603e-06
9.387554041138708590e-06
1.012275744143368338e-05
1.022839597794107425e-05
9.191568883600570184e-06
1.021609704670278153e-05
1.032078438439678627e-05
1.041306912516056696e-05
1.030654297604627210e-05
1.059689815867194575e-05
1.050503517769095889e-05
1.048953260776529884e-05
1.039763792360702935e-05
1.068844727765599345e-05
1.058028376273361726e-05
7.068782326142843668e-07
1.067306026267629947e-05
1.077980277071151127e-05
1.076358256328770503e-05
1.087052992222956907e-05
1.603480817894817631e-06
1.084974726894088802e-05
1.096044650730416991e-05
2.795637025611567866e-06
1.096575656866592216e-05
1.104990315671553773e-05
3.818074776172150873e-06
1.103555445525501231e-05
1.113846168735075020e-05
1.111026194720131970e-05
1.122646023116542241e-05
1.122396301250617387e-05
1.131378576890257463e-05
1.129747239896401738e-05
1.140043340520942730e-05
1.137820018901354947e-05
1.148547856275817361e-05
1.144972197695845582e-05
1.156890142634401331e-05
1.165058798915714859e-05
1.153321816811006919e-05
1.173059015733202479e-05
1.162611687842239329e-05
1.172195900824196779e-05
1.180901512371675742e-05
1.179693250768640326e-05
1.188576823296232741e-05
1.186034376079014971e-05
1.196104836873197076e-05
1.203532723019906765e-05
1.196179884556142309e-05
1.203184126249841167e-05
1.210902216511133513e-05
1.210326245157304666e-05
1.218206401632069485e-05
1.216748631345638027e-05
1.225464499191353159e-05
1.223692885362090315e-05
1.232653960688025141e-05
1.229873719883390576e-05
1.239776975700585427e-05
1.236222454537580097e-05
1.246831089556318791e-05
1.242418347023795099e-05
1.253833727621693530e-05
1.249746028054126348e-05
1.260785750424478239e-05
1.330500595093496118e-05
1.344785508564815728e-05
1.336425971441363697e-05
1.257353387387655409e-05
1.267678224153998241e-05
1.321103381314018561e-05
1.326479247654190866e-05
1.309413210540771213e-05
1.316787074134988921e-05
1.274522698139630205e-05
1.263564096149955422e-05
1.270505990770880147e-05
1.281282728348433379e-05
1.308808174388871422e-05
1.304905726291683048e-05
1.279865566785894326e-05
1.287983427281201209e-05
1.298563689544661117e-05
1.301500379646468875e-05
1.291138449180156033e-05
1.294620559818684955e-05
1.285356062579008846e-05
6.360027925949062789e-07
1.203858908537016391e-07
8.066082659345999022e-08
6.498101095776445392e-08
6.569594877928388460e-07
7.010834931716657258e-07
6.485774889296801703e-08
-2.690573222986922741e-09
2.166016424882446085e-08
-4.472704295008659626e-08
1.470603719410109203e-06
1.714614991803324696e-06
7.662664053810612508e-07
1.240428853867447678e-06
7.174967902390080429e-07
2.525485408009577623e-08
-3.009145676897914012e-08
-1.010812024612526072e-07
1.437887199900739995e-06
1.377549375363715954e-06
1.315359230037021964e-06
8.549143552304324997e-07
7.804855835850645968e-07
9.799159220823905569e-07
1.125221601585448577e-06
1.298527350429460783e-06
1.187784161811631541e-06
1.258840361318997585e-06
7.451850652852591068e-07
2.002292390374664701e-06
2.076367133651717559e-06
2.845590644025987671e-06
2.652464524620708360e-08
-5.594871612539165629e-07
-8.258127166378604505e-08
-2.262456496774090380e-07
-4.271496722675331177e-07
-6.150335190886142334e-08
1.357449593000108131e-06
8.541067674635011815e-07
9.634647492179814883e-07
1.083340464098347831e-06
1.179205267297221551e-06
1.317494653753908098e-06
1.248903266013860644e-06
7.771961862682785018e-07
2.811655130693516042e-06
2.760086445389137851e-06
3.334804713637519639e-06
3.387798743943645718e-06
3.234408722964240270e-06
4.489374416537904994e-06
4.373979457731593670e-06
3.404256061850205426e-06
2.018530880018779170e-06
2.059002438094282235e-06
2.113784319625412246e-06
2.177217089801444508e-06
2.680747567570335959e-06
2.824385063892334108e-08
-5.531460069691556867e-07
-2.035727156564914739e-07
-3.812212155524707103e-07
-1.078271339293197722e-07
1.022352677629457198e-06
9.007063513089869997e-07
1.132776001305911940e-06
1.084297146243796793e-06
1.234027150980200057e-06
1.326753362485137020e-06
8.161577616840116114e-07
2.733997958586425475e-06
2.669206243024537367e-06
2.698652421630921155e-06
2.637784881012734370e-06
4.316353871619613006e-06
4.284728457665778936e-06
3.465581418720997458e-06
2.071686367667438451e-06
2.174551352421561556e-06
2.293069306504825233e-06
2.583137611545196195e-06
2.442075420943942063e-06
2.589995336782121213e-06
2.647107165173049762e-06
2.221783449511836650e-08
-5.451221540782351182e-07
-3.162808618324129174e-07
-1.184369419908537036e-07
9.697752663989138447e-07
1.088399190167107165e-06
1.194572469061860026e-06
1.330617734354134071e-06
8.584977382640247934e-07
2.719430986558328672e-06
4.223661977562762266e-06
4.216770329541632103e-06
4.246724408886997611e-06
3.754256084739095682e-06
3.647476430271024777e-06
3.532910270532035657e-06
2.119457423000149948e-06
2.261326168915937287e-06
2.375829024119532039e-06
2.492480476542587464e-06
2.584628431598360276e-06
2.648622910509702742e-06
-7.529814500663680778e-10
-5.349452212053082772e-07
-2.626994405254083135e-07
1.021788730704363474e-06
1.172670941045766200e-06
1.333551556220707411e-06
9.179729364847845008e-07
2.739407070780486654e-06
4.282750148430256208e-06
4.105239884974847190e-06
4.156281230678297433e-06
4.168236812350255201e-06
4.212321690159200694e-06
3.985491876642438033e-06
3.851989388927034118e-06
3.723208244509263347e-06
3.590631227203718057e-06
2.194526859341696518e-06
2.384121105790634504e-06
2.545201528540225158e-06
2.653990375426085360e-06
-9.449212707355171634e-10
-5.223259025545865669e-07
-1.748114567957989444e-07
1.122990410093201395e-06
1.324122828215579165e-06
1.003408874413129522e-06
2.738516257105011877e-06
4.221919572822210254e-06
4.310257470188337073e-06
4.062377120158636850e-06
4.136668288575508787e-06
4.151821732710882836e-06
3.871436797292033532e-06
3.680125435691747850e-06
2.291178738659616671e-06
2.546636576346771066e-06
-5.065163092049801899e-07
-3.933476080555086269e-08
1.300943439872888028e-06
1.080233338718300738e-06
2.742023924623829739e-06
4.230751980619744452e-06
4.345609578634488840e-06
4.014757296806201059e-06
4.120078373269797734e-06
3.798277532865729442e-06
5.789228571417724433e-06
5.570999450932412194e-06
2.385642331620408440e-06
2.591710874532502885e-06
-4.864832745172292515e-07
-7.502263352119161637e-08
1.370878083519120327e-06
1.143720130828949345e-06
2.773747557713771634e-06
4.200121832953506922e-06
4.391715632677460106e-06
3.961517518071013035e-06
6.417340625436480142e-06
6.194580228880399070e-06
6.310290212755355212e-06
5.913921166107660588e-06
6.059799895140853243e-06
5.724003359630402331e-06
2.510720687081004013e-06
-5.587722094133960572e-08
-4.614550621786362691e-07
6.487006650458638783e-06
8.481265073733161488e-06
8.349116017903647152e-06
8.221011206593058517e-06
8.081185417951035631e-06
7.942038477829064909e-06
7.827797509442624695e-06
1.381596452317695672e-06
2.766123086469846390e-06
4.480346421066310664e-06
4.132156039407225802e-06
6.321299708841293602e-06
6.155280528847939115e-06
6.398515208544352419e-06
5.947326718690948007e-06
4.659755268041530652e-06
2.737239702012583570e-06
-9.164526265557572962e-08
-4.301180960634723259e-07
9.989306427133916685e-06
9.873922452799128308e-06
6.627740206666754300e-06
6.860137086418401065e-06
7.114410554339716092e-06
7.385840895595947273e-06
8.381302233040906254e-06
8.122117367521610218e-06
8.249543165461428978e-06
7.624708326889425203e-06
7.959588276556985387e-06
7.810692872217480797e-06
1.430878412496765523e-06
2.930263047853511079e-06
4.325487341192085108e-06
6.159709616664600495e-06
6.397398879950028555e-06
4.864983799993384360e-06
4.609800726235038711e-06
2.914125782964859791e-06
4.649748379569658435e-08
-3.913089652839806920e-07
1.004154115548055209e-05
8.581614362001387792e-06
8.759970335510794379e-06
6.567950283857602027e-06
6.895571123157024723e-06
8.401349404672392112e-06
7.276333339529724271e-06
8.102115755298499049e-06
7.698992849107959537e-06
1.518117160554736607e-06
5.004074940870484981e-06
4.814378201090902762e-06
3.183659184530878184e-06
1.636278692896724246e-06
-3.467151313151542154e-07
2.835208397319141947e-07
-3.015855016383672554e-07
4.060917764879880050e-07
-2.584011074820145045e-07
5.111406842492193833e-07
-2.234283108978102896e-07
5.291876819136567947e-07
5.164817498411640891e-07
9.797613320558426001e-07
1.006705549912968262e-05
1.004425643322857306e-05
8.658807223795513493e-06
8.913995046747125983e-06
5.266425978339617957e-06
5.050706470466634422e-06
3.338231784771943650e-06
1.846964487092356966e-06
-1.881265282880412129e-07
7.565043783094102073e-07
1.180750385664735471e-06
1.012446988348236020e-05
1.001756879050831389e-05
1.008249421319517471e-05
9.938612473270011074e-06
9.989529049125565489e-06
5.511767265017755134e-06
3.765898145678410882e-06
2.023829414886260925e-06
1.472194249813853883e-06
1.892141801477293083e-06
2.245670152872942931e-06
1.018349942989882683e-05
1.007989925199064206e-05
1.002263575328199418e-05
9.966414312166913160e-06
9.906565302540873595e-06
9.831040433264654605e-06
1.047973255113732335e-05
1.066450846540069214e-05
7.870599711431592918e-06
8.175590397456511708e-06
4.345752455531426749e-06
6.061463395739736527e-06
4.504066867157532863e-06
2.367483227282281804e-06
2.339384173780599383e-06
2.634252472744131455e-06
2.840824229615671494e-06
1.071182763961356067e-05
1.078535366332676779e-05
1.055161268302663693e-05
1.060586594648600325e-05
1.027960269333182869e-05
1.037733169579182931e-05
1.017185781313488421e-05
1.009125976888773628e-05
9.994345774748066881e-06
9.919040051293407070e-06
9.819777710464031985e-06
9.513843707591489583e-06
9.693650187676597081e-06
1.040061552158520731e-05
8.486311697233583671e-06
1.089877601812619243e-05
6.662607500545355445e-06
7.343454156781879395e-06
7.783010805184226256e-06
8.159519349027207722e-06
4.972960786197213326e-06
5.226215857250411171e-06
2.888174887400320264e-06
3.161780786477181436e-06
3.318949234087971338e-06
1.048268265634382952e-05
1.022039733706482808e-05
1.005821293098013549e-05
9.297771031146809229e-06
9.502737171834749208e-06
9.908491631224319637e-06
9.684655138904578142e-06
1.031199972807457911e-05
8.895013272625901693e-06
8.552129131861496605e-06
5.632228534782033762e-06
5.821804591364596150e-06
3.661353769575535290e-06
3.732724971465298824e-06
3.444034084073234417e-06
3.786693789202865147e-06
4.080721501675537277e-06
9.203753978943820439e-06
1.007373015457289975e-05
9.488068653196547592e-06
9.813371845716194490e-06
6.200350998984460103e-06
4.467213831763081041e-06