<?xml version="1.0" encoding="UTF-8"?>
<VTKFile type="UnstructuredGrid" version="0.1" byte_order="LittleEndian">
<UnstructuredGrid>
<Piece NumberOfPoints="4497" NumberOfCells="8293">
<PointData>
<DataArray type="Float64" Name="Current_density_norm_@_t" Format="ascii">
1.809758462430056951e-06
1.437625036565481931e-06
1.466217164429269567e-06
2.113073860014878327e-06
1.630578165341044470e-06
1.861945545670878741e-06
2.246436737933520477e-06
1.838235069197496195e-06
2.234603182752697684e-06
5.676419957107918621e-06
5.704736052766073228e-06
5.668107230027499098e-06
6.182272376121859070e-06
6.213922125075753146e-06
6.179056108092734305e-06
6.670793016382569857e-06
6.710211403615940871e-06
6.673722896154748039e-06
8.358916618862262239e-06
8.400645088370595293e-06
8.391799708082689960e-06
8.186343911375334296e-06
8.149363048756218372e-06
8.211167031224948012e-06
8.124300369121409724e-06
8.155297481519407536e-06
7.758038674403913999e-06
7.815027158520868698e-06
7.782851832696029235e-06
7.750648334251077673e-06
7.741730045832296656e-06
7.768967142597066000e-06
7.848883867596239582e-06
7.863631633187235210e-06
7.931460920330652765e-06
7.889129928900820942e-06
7.895795702869045363e-06
7.972506978589251190e-06
7.935667375844379214e-06
8.012098272695391600e-06
7.979464481278942151e-06
8.049937459154588845e-06
8.170778592673294665e-06
8.233488774264059308e-06
8.005516081271236089e-06
8.085773783485451549e-06
8.047130707121710275e-06
8.120833147173284617e-06
8.079522852506106201e-06
8.211776119709425847e-06
8.260438789364837132e-06
7.782218629449975589e-06
1.008238503760882447e-06
1.084625344221468189e-06
5.263591917103874083e-07
1.479571709026011917e-06
0.000000000000000000e+00
8.251914425419797844e-07
1.580624625324521215e-06
5.801006017377450733e-06
5.833580435192898842e-06
5.812575973957184529e-06
5.808276674657067835e-06
5.652336277987240891e-06
5.629150852891037419e-06
5.835137939583874977e-06
5.774689556704146721e-06
5.781711095357655602e-06
5.776862474998401701e-06
5.795135778370875687e-06
5.630025288256423690e-06
5.737049188022657711e-06
5.743334599527053935e-06
5.701420317478270444e-06
5.655735030973019070e-06
5.596212008131978989e-06
5.817814314574535308e-06
5.771180517722925953e-06
5.735243418982358644e-06
5.747891390705892649e-06
5.611653625325401055e-06
5.683533659787577273e-06
5.634579665887519901e-06
5.729151496719891979e-06
5.571493937005139231e-06
5.795958345742631960e-06
5.741150059451608722e-06
5.692803266456503044e-06
5.592599247543493562e-06
5.632143622612255627e-06
5.689166705625137758e-06
5.538780003992486935e-06
5.768554776519626320e-06
5.705462588556779395e-06
5.626901200772533414e-06
5.571409042482440437e-06
5.633580867025333796e-06
5.495284303585354879e-06
5.732947214023259683e-06
5.657421838834510467e-06
5.542589288630884737e-06
5.592407657016381781e-06
5.437201515704123983e-06
5.686753283553529640e-06
5.594004992219631025e-06
5.488836698697763508e-06
5.359979818641338393e-06
5.626561959682660504e-06
5.534439495740825729e-06
5.414620468940325929e-06
5.257070785127956436e-06
5.548385492192255720e-06
5.320451730320847771e-06
5.120017643853972527e-06
5.446733460489118878e-06
5.192843785555210168e-06
4.937331416147334362e-06
5.314722129304729666e-06
5.035294954457667151e-06
4.700931488393468873e-06
4.922723949813313256e-06
5.143179195318660749e-06
4.924155834970151613e-06
4.422965771459036242e-06
4.129997179650232771e-06
4.674187235748155863e-06
4.407009189179111566e-06
3.821073013791155852e-06
3.796007581616058949e-06
3.469091316527054187e-06
4.181918592638170964e-06
3.570294858281075731e-06
3.182980053937503072e-06
3.354917070466828802e-06
2.973652553665796006e-06
2.882875317653540655e-06
3.175926718237349740e-06
3.045642937822899192e-06
2.795555677463583265e-06
3.937742728750374203e-06
3.018614332213247420e-06
2.758403542072691588e-06
2.817418169901193995e-06
3.757018796022307653e-06
3.469499504744033621e-06
3.088141690194424508e-06
3.334068294164824090e-06
3.278537118859063994e-06
3.126044823118361292e-06
2.970085899981762790e-06
3.725625798466836432e-06
3.471438699607693419e-06
3.532296851042209508e-06
3.436302753811496275e-06
3.342051204398695621e-06
3.246321674951535007e-06
3.803568285322266322e-06
3.680742776351021386e-06
3.658062862820749442e-06
3.568468010011451897e-06
3.486614025197490126e-06
3.989535973473839156e-06
3.886704811016839198e-06
3.729891410264941353e-06
3.736526216246678811e-06
4.313554526744327750e-06
4.060840381923771582e-06
4.161566774723921855e-06
4.513468612559583982e-06
4.860250219621227326e-06
4.970918394658931219e-06
5.386719450101374240e-06
4.742573252145373810e-06
5.346386111808743968e-06
5.872086681160708764e-06
6.120882031164900225e-06
6.354891921370626622e-06
5.876247239845100551e-06
6.378964802571591645e-06
6.806486060126327988e-06
7.092343280703844707e-06
7.202095823653196054e-06
7.306883059223817378e-06
7.512104661233712809e-06
6.855656536297314654e-06
7.261240965299439153e-06
7.534188516705913088e-06
7.750612888078476032e-06
7.974541204987573942e-06
8.075424464794757063e-06
7.934181805536783574e-06
7.574458965655730743e-06
7.799760977386266142e-06
7.948448042135523146e-06
8.090151847506533731e-06
8.184097480507122318e-06
7.809762923482892248e-06
7.986222525658381082e-06
8.203110628529243424e-06
8.084650537388110819e-06
8.160967509205106557e-06
8.267613718165258929e-06
8.281611711823456910e-06
8.118805935012229590e-06
8.234370814799557277e-06
8.195041527830370824e-06
8.331912941299557485e-06
8.304698607598914981e-06
8.342603963673663562e-06
8.218312693865207665e-06
8.277126886390994044e-06
8.272996140717819982e-06
8.333419267577219311e-06
8.381479743041711318e-06
8.359739842946891443e-06
8.387526838803580054e-06
8.293051248842863457e-06
8.328755386890471696e-06
8.335210152720709656e-06
8.368927568747742564e-06
8.385208114956822171e-06
8.372991473262621730e-06
8.420725778490106633e-06
8.405253324065619115e-06
8.422779614084774461e-06
8.349076874344650928e-06
8.375550957605070135e-06
8.408168183061808540e-06
8.426325086066618986e-06
8.397127341816500382e-06
8.413412319441524497e-06
8.457190446507628081e-06
8.442084021195701439e-06
8.391497287540618824e-06
8.406856954036651382e-06
8.458816297445622708e-06
8.429207475613060237e-06
8.442707244969048985e-06
8.442149022273540165e-06
8.455364417751908143e-06
8.444896676564364965e-06
8.482042609754794597e-06
8.430065751084471988e-06
8.488499185790221631e-06
8.460198373721424566e-06
8.473941172194150267e-06
8.478525292036801108e-06
8.483863066774726674e-06
6.302944938691779852e-06
6.339646213706501785e-06
6.320225137475415120e-06
6.158730620382898396e-06
6.140030389721016142e-06
6.135865836448325368e-06
6.273217206816413001e-06
6.286740615020995339e-06
6.203429377070054626e-06
6.249023649341423242e-06
6.238022021253918007e-06
6.267715178379912848e-06
6.329404795061928744e-06
6.286194937677438957e-06
6.105509394866239646e-06
6.156493608628936309e-06
6.119358883742603363e-06
6.223383916898498765e-06
6.182340547055773621e-06
6.239614977389569042e-06
6.318785117528283940e-06
6.263361075131778394e-06
6.083442827749829659e-06
6.194679896917147880e-06
6.114584200306043320e-06
6.159230629471286037e-06
6.204423737145117361e-06
6.295783740925180869e-06
6.230128296401739272e-06
6.053831651539265325e-06
6.147205417113057561e-06
6.093650937982008493e-06
6.157131125677133414e-06
6.265452902758496004e-06
6.185498057763013578e-06
6.013635908169157278e-06
6.073923984753532536e-06
6.116203152368115847e-06
6.225033674660369415e-06
6.123375169287008355e-06
5.959468421120794498e-06
6.033056070441588753e-06
6.041024477241052885e-06
6.171273705880431785e-06
5.886442987812687730e-06
5.932981101325478064e-06
6.099758199229580776e-06
5.787846687079723100e-06
5.886924153844973988e-06
6.004650912682703577e-06
5.815964574174689021e-06
5.654829665586702436e-06
5.713853789775371017e-06
5.878936431056998823e-06
5.636232589302321180e-06
5.475196575353114982e-06
5.712476308831320457e-06
5.527615510931266945e-06
5.235937627367511860e-06
5.578277914537763169e-06
5.324517282063063531e-06
5.057583299361535848e-06
5.426223839317148196e-06
5.130361554333119551e-06
4.866419328709736874e-06
5.074276885287616564e-06
5.311669267287172873e-06
5.061732290945375370e-06
4.717618787069569371e-06
4.976224238902937057e-06
5.314305966882541339e-06
4.704031354020146895e-06
5.083451349580430311e-06
5.415413343033260947e-06
4.798114031073773638e-06
5.220185448678937729e-06
5.616120698827374812e-06
4.999940662598473342e-06
5.347042620810724697e-06
5.573286537048535243e-06
5.936236963223254543e-06
5.334534677724743230e-06
5.774559436017616141e-06
6.064569482537347083e-06
6.421835603014948175e-06
6.657652777422247537e-06
6.821598563656067695e-06
5.865074545554651850e-06
6.320466658783722161e-06
6.978770711503172458e-06
7.174675139479190913e-06
7.260517134962148841e-06
7.524193516938761197e-06
6.745442428595538697e-06
7.442010772461440436e-06
7.619108767072948772e-06
7.788106264617223468e-06
8.405887351893789826e-06
8.447450915154513149e-06
8.399409322585431201e-06
8.446976371345449387e-06
7.212625684961961534e-06
7.563296018881455338e-06
7.793914645111691997e-06
7.987800351151696078e-06
8.347499731512643921e-06
8.335630353532714863e-06
8.272677236602384016e-06
8.250758099712519455e-06
8.367408781235977569e-06
8.421372512422326163e-06
8.398301939623297732e-06
8.455522579427313337e-06
8.478365097575480880e-06
8.473595567778880862e-06
8.179243981097377190e-06
8.137939018654298564e-06
8.070544129500175867e-06
7.954319353038878410e-06
7.823201260016276405e-06
8.296663626429043884e-06
8.225722583285932218e-06
8.336314455515928345e-06
8.394490706964023241e-06
8.450232382794300854e-06
8.438567237124712506e-06
8.485668026201986628e-06
8.508128484702038165e-06
8.118266699906085819e-06
8.015595601662711372e-06
8.235000127570281945e-06
8.325943201756146834e-06
8.385334456600152962e-06
8.434815916845220127e-06
8.446662174612004344e-06
8.485600394445647819e-06
8.481924315585370343e-06
8.521863013058360645e-06
8.158285418605500371e-06
8.342243254697688260e-06
8.263978687750096243e-06
8.464434336200832198e-06
8.450654987196003128e-06
8.424171038309030582e-06
8.400318835773886244e-06
8.478465506685172820e-06
8.486843044476323548e-06
8.521071472329799367e-06
8.520266982172108048e-06
8.474505059884668908e-06
8.455006651257747076e-06
8.443279416322211324e-06
8.519814811245973905e-06
8.509122611599319379e-06
8.481193957775056533e-06
6.645807763332564897e-06
6.635050353067722840e-06
6.797063391082989301e-06
6.831730594042862383e-06
6.817016094420820638e-06
6.799145714420791002e-06
6.822338659123877341e-06
6.620895890853745387e-06
6.598992579786997922e-06
6.771874749484369124e-06
6.788586133439154492e-06
6.732833749646241741e-06
6.749625361116469277e-06
6.700642929099482362e-06
6.630182394973418671e-06
6.654734246392825853e-06
6.767192249664025048e-06
6.783626786526371808e-06
6.811002302092156948e-06
6.581777915038780410e-06
6.720513093084157198e-06
6.664349305632932138e-06
6.615086274339174399e-06
6.730234536462531107e-06
6.757098392276495436e-06
6.792837574229214453e-06
6.558283643371482836e-06
6.666048230611506162e-06
6.603227407452622795e-06
6.685525137230327535e-06
6.721824833155253876e-06
6.768699806023683490e-06
6.526492044012203675e-06
6.588872568156060893e-06
6.652341333045287187e-06
6.673069883478823301e-06
6.737145928189771801e-06
6.483224864041262803e-06
6.556920742282850478e-06
6.618362048919753688e-06
6.696382132735856423e-06
6.424905428724423118e-06
6.510286919735559850e-06
6.535084417109048741e-06
6.647266530678367727e-06
6.345744811555473300e-06
6.451603316529318458e-06
6.585010829560107159e-06
6.238546061496606709e-06
6.380857045910791769e-06
6.533168830245876922e-06
6.154947799555155979e-06
6.321787963721565173e-06
6.470295044817218166e-06
6.322535652656553209e-06
6.454774376283013004e-06
6.055490759390804825e-06
6.269885423020197557e-06
6.438712925706326433e-06
5.989281629600908619e-06
6.227416731532828300e-06
6.476524066631083175e-06
8.444875507153359987e-06
8.437787679361389794e-06
8.476317958152960365e-06
8.451377231891119509e-06
8.488741547954106994e-06
6.013161283216840152e-06
6.278838876258302611e-06
6.578727623668528530e-06
8.453350245498080854e-06
8.423743990390303502e-06
8.413213610696909281e-06
8.403916207585333800e-06
8.406642198463720980e-06
8.491896065592191629e-06
8.455657337604701826e-06
6.117623175737133374e-06
6.437093074101089814e-06
6.747403848490553584e-06
8.410895856173407567e-06
8.396681313321448033e-06
8.365921252049034136e-06
8.355768369685189975e-06
8.355945120149367586e-06
8.291226665273102880e-06
8.289279828690919349e-06
8.450216652994171733e-06
8.451702348225657575e-06
8.419119934341153628e-06
8.428864615547590665e-06
8.457543041516311138e-06
8.397505741152603184e-06
8.379917298304164321e-06
8.467304944537071780e-06
8.468850265956089958e-06
8.476889667701588069e-06
8.495832780076139734e-06
8.499786634922591600e-06
8.433657709436033969e-06
8.470466338873165730e-06
6.685974527984632230e-06
6.990665802182213808e-06
6.939415293912264962e-06
7.160440429775917009e-06
7.170151693596877409e-06
7.324849269321575684e-06
7.322436578588176181e-06
7.573744037725846655e-06
6.304607913349453573e-06
8.350924574695932804e-06
8.308028496423463049e-06
8.200638726783546949e-06
8.201652056142202761e-06
8.237764305437132251e-06
8.392307332639703014e-06
8.326105552973477622e-06
8.336048561333422421e-06
8.092238229306222608e-06
8.088240464429773664e-06
7.553454852747989274e-06
7.779319169045110192e-06
8.503092289635870427e-06
8.496034591462979171e-06
6.586657129565174894e-06
6.991012891187347518e-06
7.306152492474366892e-06
8.246601306289381427e-06
8.137031410727112979e-06
8.259952623024783644e-06
7.771852413760263036e-06
7.952217797721087555e-06
7.947698329065804637e-06
8.013191717882376367e-06
7.570924068476437683e-06
8.156738704656556392e-06
8.016957775422685003e-06
7.827589350773767919e-06
7.178042817277876279e-06
7.205979295773108233e-06
7.177704638798264178e-06
7.155894414961860783e-06
7.139819599860994028e-06
7.192670834169252058e-06
7.228301100638324102e-06
7.211095572517962245e-06
7.256650879880564995e-06
7.157744656386907165e-06
7.102282739174598819e-06
7.126311915988462022e-06
7.232100174046168130e-06
7.294107135662552045e-06
7.168745070021219747e-06
7.187694592289685788e-06
7.124416791306398451e-06
7.093041113822198000e-06
7.257583402125278199e-06
7.342872925926460467e-06
7.342586096501534322e-06
7.279991416130199085e-06
7.187038776812223302e-06
7.128645685332227758e-06
7.080496314430902796e-06
7.342079563895379954e-06
7.258587495151194012e-06
7.208952141079057675e-06
7.122038201215839810e-06
7.063421557237048264e-06
7.239282230646685514e-06
7.331986539237610360e-06
7.140770172007876664e-06
7.040280574262071364e-06
7.225137691288674869e-06
7.319510347790774206e-06
7.107025748381790474e-06
7.241567713434313101e-06
7.008763537225122617e-06
7.321152654165603286e-06
6.991314274681843933e-06
7.116624738704558118e-06
7.225200344593934695e-06
7.322894373166688921e-06
6.969817918099764119e-06
7.124160311530827963e-06
8.375140207789460463e-06
8.397785103178640251e-06
8.367520286411203194e-06
8.375789155460566614e-06
7.162396804069595694e-06
7.350795288333902769e-06
6.973394354399661135e-06
8.351861677142980253e-06
8.380362007212129432e-06
8.333514846217328099e-06
8.367178572501019035e-06
8.317157310344629867e-06
8.340496698172717330e-06
8.337091492527567090e-06
8.351578976696284563e-06
8.305074082904386512e-06
7.204770862440828561e-06
7.402218991159918978e-06
6.977277549429082191e-06
8.257355460904562287e-06
8.311055873304085093e-06
8.256713496530693999e-06
8.303229921427227308e-06
7.818041728949014980e-06
7.948167539665289819e-06
7.852935402043456295e-06
7.927637787385334009e-06
8.036149238402733792e-06
8.230671125373425486e-06
8.254657531393764578e-06
8.122002896606389020e-06
8.154761351448433989e-06
7.265761573699012465e-06
7.477131017861391131e-06
7.365228764173782321e-06
7.576175069517893383e-06
7.655794747280435814e-06
7.700736554019262437e-06
7.698470474611425975e-06
7.501590406213672132e-06
7.554384690865508627e-06
7.027407818483960777e-06
8.177039123756268661e-06
8.183886031625662102e-06
8.252573348329083174e-06
7.985611587185846688e-06
7.835660400533492402e-06
8.103255029956285178e-06
8.010295238144161698e-06
7.667439838169517070e-06
7.119105277078164763e-06
7.253354201914581359e-06
7.433937053255857880e-06
8.090802346990976391e-06
7.830933560053256813e-06
7.964227334242798782e-06
8.134524472286976080e-06
8.090512379705487803e-06
8.055529564171964930e-06
7.814020901259106922e-06
7.853405162630690506e-06
7.900465540863815990e-06
7.955563440001436621e-06
8.018796605985760491e-06
5.852977797776801574e-06
5.911904032737290836e-06
5.867493676830594235e-06
5.819684698709076399e-06
5.822641615912482158e-06
5.780530162251133310e-06
5.777282795749889381e-06
5.738704179310324729e-06
5.730192517491941978e-06
5.681253183079170720e-06
5.680701800115729533e-06
5.956254371510060175e-06
5.902669747703304046e-06
5.701642256524466434e-06
5.615201167053438184e-06
5.625790991460159570e-06
6.173648669519092183e-06
6.230514013738920848e-06
6.184126572703307597e-06
6.137592330732686283e-06
6.127666845888857437e-06
6.226967004656391246e-06
6.276523423029349599e-06
6.324196414418689510e-06
6.367415185504816960e-06
6.322127879786633584e-06
6.262712130500040757e-06
5.945472883417907497e-06
6.000575009519865693e-06
5.986638113848860072e-06
6.045727656582655264e-06
6.035000144510501167e-06
6.091268244922470574e-06
6.083531005925413982e-06
6.360738077330821309e-06
6.412285608219181518e-06
6.393929832281007098e-06
6.457054543798862543e-06
5.555474143534678870e-06
5.545614268369655749e-06
5.478206467910319199e-06
5.480950401526192629e-06
5.426410934346015821e-06
5.416446987865565831e-06
6.440540200636999829e-06
6.501829555288957569e-06
6.656623253541682970e-06
6.724839375445906704e-06
6.680457394724170881e-06
6.850542163622655239e-06
6.902332507819039609e-06
6.858050288251805653e-06
6.797542443301767817e-06
6.813806773105037796e-06
6.760127069453241103e-06
6.769408829624507743e-06
6.720696412340308181e-06
7.248617926331894144e-06
7.298380677573744090e-06
7.262206034085079567e-06
7.205891848003906496e-06
7.227402207682370269e-06
6.901990711669070502e-06
6.946463786143788113e-06
6.479366757125998446e-06
6.546401795058443118e-06
6.613073042352742305e-06
6.635886378896789140e-06
6.591228002519189089e-06
6.566751725532420843e-06
6.520005365086449159e-06
7.276856897662002385e-06
7.336077605815163251e-06
7.165001593810932579e-06
7.191492691060713149e-06
6.972950809166270612e-06
7.033888903138184730e-06
6.990404694777500332e-06
6.928123845551259835e-06
7.307422318301897340e-06
7.375401518222143220e-06
7.126737973987473857e-06
7.154240854682201406e-06
7.115498112450116514e-06
7.082991435716947476e-06
7.044941633126948030e-06
7.075487159829476457e-06
7.008593099153636284e-06
7.396113047546682483e-06
7.459863767831078973e-06
7.416763157027343864e-06
7.418224311752043461e-06
7.505654697776649880e-06
7.564364732432143841e-06
7.650755475736393540e-06
7.603593152351622084e-06
7.525479712606709669e-06
7.553904876470726818e-06
7.433924011931900622e-06
7.606387158793224260e-06
7.696313739146662356e-06
7.640448214096435894e-06
8.427758633018910209e-06
8.476774517641738084e-06
8.464164661638240832e-06
8.288903122711354843e-06
8.188533802481250283e-06
8.221149719498642777e-06
8.315473460720623568e-06
8.412783883457505610e-06
8.449491666655583385e-06
8.438921024195588199e-06
8.487666208119668275e-06
8.250990088769381953e-06
8.341303875614326582e-06
8.286441200414269769e-06
8.366476430058415322e-06
8.402685170571895707e-06
8.432257213386147330e-06
8.340247910294470730e-06
8.412104817977944751e-06
8.390216703131333169e-06
8.441875256091263183e-06
8.497941767100427598e-06
8.280964639048063347e-06
8.452678618747873896e-06
8.507673356068262596e-06
8.517031140655184041e-06
8.458349394222154936e-06
8.534225994787101577e-06
8.525809830081212720e-06
8.475395138249397134e-06
8.464714450431172951e-06
8.542078645371477586e-06
8.483768994119479035e-06
1.965920413977879136e-06
8.493520393303981324e-06
8.549549774698080910e-06
8.499760318551552883e-06
8.556493483971216784e-06
2.248246030610986706e-06
8.514329959044196372e-06
8.562768450964672377e-06
2.507751343205286211e-06
8.525646432946517848e-06
8.568729404765162291e-06
2.690320749355763244e-06
8.529562033235859987e-06
8.573941862791535987e-06
8.534681997185011921e-06
8.578756772093638037e-06
8.533853911494637529e-06
8.583057250649757882e-06
8.536771933331791158e-06
8.586883134954001264e-06
8.539243300823312919e-06
8.590010187695594176e-06
8.535813136438074304e-06
8.592699280225338555e-06
8.594821703391125001e-06
8.534994951835250319e-06
8.596406848913815395e-06
8.542973810523639007e-06
8.555522507389503109e-06
8.597556323744279933e-06
8.556765089586133098e-06
8.598158758425625381e-06
8.557009503727494405e-06
8.598382067423578285e-06
8.598100891827898314e-06
8.557762069996015014e-06
8.558753367457942477e-06
8.597410342676867925e-06
8.557816922802978567e-06
8.596248400660181063e-06
8.551269236939520874e-06
8.594806511485443762e-06
8.553393723023043871e-06
8.592865362458504712e-06
8.547139244182942527e-06
8.590454093192060039e-06
8.540673684617680210e-06
8.587479665063938892e-06
8.531827225557039537e-06
8.584104184429661315e-06
8.530166116314734140e-06
8.580333112171363742e-06
8.445188775080624504e-06
8.491490665742032468e-06
8.504355145126552305e-06
8.529179274264127319e-06
8.576093834478368857e-06
8.443029200552807089e-06
8.518409945874307000e-06
8.446728235183297072e-06
8.530878132748588881e-06
8.571520319621069676e-06
8.521075754538194957e-06
8.526603159564289058e-06
8.566319647196384010e-06
8.540105424725601420e-06
8.475310871776857251e-06
8.522394969406282519e-06
8.560745204054272912e-06
8.504476563787310623e-06
8.547948988960904851e-06
8.513794346517094286e-06
8.554704689828215245e-06
8.516897331473445140e-06
5.871453928349434315e-06
5.649454989032675103e-06
5.648530812137670558e-06
5.621132810803816127e-06
5.862358844429075738e-06
5.871539288184934216e-06
5.600371522247769442e-06
5.588289013822265903e-06
5.567131086483081449e-06
5.550522000190702503e-06
6.193436076812203657e-06
6.287645851704285174e-06
5.899180345576666332e-06
6.074034713551867189e-06
5.857941849486721160e-06
5.537386386800723196e-06
5.533579944045608421e-06
5.512787260815676555e-06
6.166522748268209694e-06
6.137713967269437863e-06
6.105854891285839962e-06
5.927099704218953948e-06
5.881006538720047355e-06
5.963473573022832104e-06
6.026784434770232168e-06
6.082528315318052514e-06
6.024953578817788153e-06
6.055581717470978853e-06
5.841278905673745581e-06
6.360088715779534726e-06
6.387158746644710318e-06
6.686547308266581106e-06
5.506229671191761123e-06
5.366500442090114042e-06
5.481617211839468970e-06
5.452597168888480809e-06
5.389697739634044598e-06
5.448217798722258394e-06
6.107865370859674866e-06
5.886514840407280475e-06
5.916014730732122392e-06
5.968734278864558230e-06
5.994160961090108510e-06
6.071638440474600313e-06
6.030602137986262227e-06
5.825377483181606309e-06
6.656483866494216885e-06
6.630881379649595299e-06
6.852342083551635183e-06
6.869542529937737945e-06
6.822433954143460517e-06
7.220021782140951299e-06
7.165225880325908092e-06
6.856528539799199933e-06
6.350018570958656220e-06
6.355765404914044754e-06
6.377432058933727781e-06
6.419823207368922596e-06
6.604357874391777412e-06
5.461873846606888472e-06
5.305161735925835222e-06
5.393426099525872589e-06
5.334782614760449215e-06
5.384102019716603064e-06
5.909384991997778546e-06
5.864200300709597972e-06
5.952516262127091458e-06
5.908675802538707831e-06
5.996390806413841440e-06
6.048095962296991056e-06
5.799893553465394584e-06
6.601771088712300701e-06
6.575253647293613443e-06
6.566904523415359721e-06
6.547659443123101369e-06
7.135532876711064626e-06
7.101994520935396656e-06
6.865391076602804312e-06
6.337781155098095784e-06
6.381238261697994723e-06
6.442034146540004990e-06
6.548784577635849999e-06
6.497619990819912794e-06
6.517826072654625400e-06
6.529379218933046081e-06
5.402764751220310625e-06
5.228223133281177811e-06
5.275506286393911689e-06
5.321982907462889924e-06
5.846399143476008385e-06
5.878568855643642681e-06
5.942032930428463833e-06
6.012990985140128557e-06
5.768462377510901599e-06
6.549136387122525508e-06
7.102690690003564835e-06
7.068990359745106790e-06
7.063023503637428921e-06
6.954514023521454463e-06
6.910130240584094996e-06
6.861191452985966220e-06
6.325339704081886333e-06
6.374550786229262928e-06
6.435985468024043129e-06
6.471941537533031097e-06
6.493387536717377668e-06
6.501298929515289682e-06
5.319017720464540960e-06
5.131740321900658152e-06
5.185258493236812020e-06
5.817728512533952939e-06
5.878548828751062643e-06
5.970074231954845879e-06
5.731468938595611409e-06
6.522267524170520162e-06
7.054260422169894646e-06
7.059067110784377296e-06
7.052883931128526345e-06
7.031942103631886909e-06
7.030017403538424279e-06
7.012843551698588854e-06
6.974011653832598955e-06
6.900505617829285685e-06
6.843077506437136024e-06
6.306305847079380339e-06
6.375364968296612260e-06
6.446755796283521411e-06
6.470540464338330753e-06
5.243702690175903856e-06
5.010461706285782493e-06
5.097249159446356088e-06
5.802491377760683324e-06
5.903898910891459815e-06
5.686525653871248230e-06
6.470865555447324713e-06
7.003783469475443653e-06
7.033087276209581845e-06
6.997079100698956649e-06
6.989339278932924323e-06
6.962339759714971345e-06
6.919193111409058326e-06
6.830670012529875592e-06
6.283372996654446174e-06
6.380081597073559056e-06
4.858180855608782095e-06
5.047859233320997762e-06
5.799087647829290006e-06
5.618474723366675028e-06
6.412582640392659851e-06
6.968100053030856901e-06
6.996560680649060750e-06
6.914376816713022167e-06
6.911729967681997264e-06
6.817487024461274550e-06
7.527546813108639403e-06
7.449172669477176473e-06
6.242147124840423732e-06
6.318812165752159691e-06
4.667198596961900315e-06
4.882462468301225310e-06
5.697607755550689741e-06
5.537451473643418476e-06
6.348804144179603904e-06
6.894936860791410970e-06
6.939716493363756000e-06
6.807369610040274634e-06
7.706335600892733536e-06
7.664518940459016198e-06
7.681212351661135317e-06
7.546287518522365960e-06
7.587661747584117780e-06
7.440879122170630188e-06
6.210652077196009572e-06
4.669049063346633297e-06
4.427323134516778409e-06
7.695561193643881204e-06
8.177606288816075802e-06
8.130577408030678605e-06
8.095559494636446861e-06
8.052612577368869275e-06
8.009953318928131092e-06
7.984337167361960663e-06
5.556820090469351676e-06
6.242689071860279930e-06
6.887626516958543957e-06
6.769244109256192891e-06
7.629336287726710198e-06
7.585645069981207797e-06
7.608655006197958524e-06
7.481599788961584992e-06
6.857756746635619685e-06
6.120921695256795562e-06
4.423134124954924364e-06
4.126119526584044542e-06
8.432839555997107266e-06
8.416559886839515938e-06
7.681703560648100345e-06
7.705419780008105387e-06
7.754385724251230947e-06
7.845964694074984407e-06
8.069480537469730176e-06
8.020110179295984078e-06
8.058729431800442912e-06
7.893758198204658307e-06
7.959189658605797467e-06
7.930997048479569142e-06
5.378389058022978255e-06
6.113039356154618028e-06
6.709617482565605181e-06
7.495909483439766248e-06
7.541332118443741025e-06
6.861794822159139867e-06
6.695203016243475180e-06
5.989009511356057127e-06
4.192596607412499509e-06
3.753377718983881063e-06
8.407810677945724858e-06
8.114940663783154620e-06
8.167271439424529501e-06
7.535874157875415631e-06
7.593436181333223466e-06
7.996016746246316066e-06
7.700688320318969531e-06
7.933541952208816565e-06
7.807538279017545277e-06
5.175606268935527054e-06
6.806106215103612601e-06
6.629624901759269779e-06
6.002164489635606892e-06
4.990126713848112601e-06
3.326464686155080140e-06
3.388718715344096199e-06
2.892876926759914147e-06
2.940471282259860666e-06
2.478830490426933140e-06
2.464749694100737992e-06
2.143137979196678178e-06
2.301520207073565700e-06
2.678457457535626370e-06
2.660028165239239735e-06
8.400580199080256736e-06
8.370035389160322857e-06
8.069689222498150323e-06
8.174366171445578540e-06
6.799221817860293141e-06
6.610962791773658843e-06
5.871267899870235436e-06
4.866016100017190574e-06
1.804833677771177911e-06
2.215348086194438041e-06
2.554654794441177529e-06
8.407274150159207884e-06
8.331212216005949784e-06
8.365824525143875681e-06
8.295540717671798586e-06
8.295324262490003621e-06
6.732397409212185497e-06
5.716385069076136367e-06
4.626126364363462664e-06
2.471631693008277905e-06
2.528293213955464016e-06
2.589618790138879868e-06
8.396851328743178732e-06
8.332548705327250563e-06
8.287935910436766522e-06
8.262916092505734198e-06
8.251949847726252626e-06
8.239126786683169336e-06
8.433912942903468621e-06
8.455122051931395098e-06
7.376024969927194903e-06
7.521623492693640572e-06
5.739267336320390568e-06
6.796750747441319452e-06
5.627721622987567788e-06
4.417761672534028185e-06
2.460278755749133821e-06
2.707037860879916240e-06
2.697737595081998003e-06
8.447919882853294169e-06
8.475901325443081311e-06
8.424944226168457626e-06
8.405258175618404590e-06
8.397500542475493931e-06
8.409672258270662690e-06
8.351511698530049796e-06
8.298790629954439112e-06
8.251612362146698974e-06
8.227799272566076489e-06
8.189834281553411597e-06
8.080973177795067273e-06
8.168452528763873340e-06
8.370343485000184035e-06
7.617021848067218559e-06
8.511858480135431177e-06
6.930099072101258513e-06
7.138141310044126638e-06
7.215678520192613825e-06
7.393976126525006123e-06
5.760674982715266649e-06
5.701748850220359793e-06
4.247493287388956144e-06
4.039552388767349929e-06
2.861982445426949535e-06
8.355806416282965000e-06
8.319593701959029184e-06
8.249363514211010043e-06
7.943885374875043446e-06
8.019901362848081295e-06
8.182793840184065685e-06
8.090000153470683152e-06
8.288019672855891526e-06
7.748172955815342091e-06
7.539376841191423020e-06
5.760614683083951512e-06
5.975802586210571000e-06
4.141668245901394239e-06
4.416446939206918176e-06
2.744475391372411514e-06
3.012728033444151378e-06
4.162686502995189522e-06
7.805621314009958023e-06
8.191516395482386658e-06
7.940694140644396804e-06
8.071165879728899284e-06
5.984677029684825352e-06
4.546464159510127830e-06
2.963590451499417480e-06
3.223053094172488941e-06