<?xml version="1.0" encoding="UTF-8"?>
<VTKFile type="UnstructuredGrid" version="0.1" byte_order="LittleEndian">
<UnstructuredGrid>
<Piece NumberOfPoints="4497" NumberOfCells="8293">
<PointData>
<DataArray type="Float64" Name="Current_density_norm_@_t" Format="ascii">
7.630997195548373343e-12
-1.541455860576868298e-12
5.417264857516668031e-12
1.604170885851619887e-11
1.097421359460537322e-11
1.689964812725917315e-11
2.311671640964732793e-11
1.993869012100859526e-11
2.943204118054268055e-11
4.645859752179421403e-13
6.374998810755470756e-13
1.094776424577032687e-14
1.141427509367553063e-11
1.164538394228680500e-11
1.100802714407867552e-11
2.300780113430831797e-11
2.332858640585618994e-11
2.258936201584433094e-11
8.154894634131826095e-11
8.219169146317362185e-11
8.159353863358444416e-11
6.734575056175997163e-11
6.712491125326116572e-11
6.843996066088443013e-11
6.628575698634661937e-11
6.601162951282997239e-11
5.253579802704820949e-11
5.322327446685160112e-11
5.213838620081819085e-11
5.173559019099561013e-11
5.077868449106858645e-11
5.334732479593810584e-11
5.438596540101359000e-11
5.608555551484754323e-11
5.730006269276332564e-11
5.578997066562310522e-11
5.748573789281685259e-11
5.880074837938802807e-11
5.919561520410289521e-11
6.028400222981541586e-11
6.058075789643102630e-11
6.173540358801908462e-11
6.838807182940203234e-11
6.945001215217523830e-11
6.180005274592215040e-11
6.315343235915992221e-11
6.334728779465416224e-11
6.457402942102187369e-11
6.461835582796024893e-11
6.944358323215643494e-11
7.070205402630247779e-11
5.432932104254370548e-11
-1.165153967166112510e-12
6.104720089860947056e-12
-6.082989134102314053e-13
1.436417313526474631e-11
0.000000000000000000e+00
1.086862009635394482e-11
2.081854659783563996e-11
3.048386794589222054e-12
3.478505615474914865e-12
2.897449514020526047e-12
3.374651524518767924e-12
1.116978511314114112e-13
-4.210196085721929771e-13
3.898353977837434395e-12
2.547829825289639593e-12
2.251748570472760494e-12
2.943983974894271146e-12
3.506862900083381584e-12
-4.186640270375498735e-14
1.823013738851172127e-12
1.445545197228239836e-12
1.042779023914733754e-12
5.217013143094992305e-13
-5.849893567630278227e-13
4.059619162510794893e-12
3.529865880538750314e-12
2.294691970574070894e-12
2.875726749019620578e-12
2.006434189163666965e-14
1.380188644538704823e-12
6.728495596522748932e-13
3.013020053862973495e-12
-4.999581004562385108e-13
4.163973458403728155e-12
3.557480868890255784e-12
2.205638675561767034e-12
2.679906171789123011e-13
1.152173744372128140e-12
2.788032340931154392e-12
-3.878669739552243502e-13
4.296375866996145420e-12
3.586440983779167099e-12
1.771225195456142175e-12
6.375167552276845722e-13
2.589136144905098764e-12
-2.379783714594448681e-13
4.468550860277952224e-12
3.664801524721830193e-12
1.258352147153876100e-12
2.691987316392715786e-12
-3.953219641651988842e-14
4.693046348485226709e-12
3.591805081899157862e-12
1.916725084698662427e-12
2.259985711543371978e-13
4.983572787087231959e-12
3.689703971053434250e-12
2.596667984828601361e-12
5.792708077429261803e-13
5.361545169053410644e-12
3.071520150541023688e-12
1.049952084449954838e-12
5.852361696422050543e-12
3.744730631813794774e-12
1.675780511821733958e-12
6.490994686909418358e-12
4.528634095073137187e-12
2.487681179307787832e-12
5.451168226339860806e-12
7.321179105927911501e-12
8.380206381745471922e-12
3.440634017473079662e-12
4.447264725533601042e-12
9.588999706325990017e-12
1.088164137451083945e-11
5.506784371627808996e-12
1.075630100218009013e-11
6.714829163384967636e-12
1.318417342624440711e-11
1.269553743842621770e-11
9.085918177088651523e-12
1.444515615988776445e-11
1.082090620677928231e-11
1.258341696322543697e-11
1.538768245245029913e-11
1.613903644377478071e-11
1.427815626359266649e-11
1.568081080544558903e-11
2.176421782988438064e-11
1.767902037083283991e-11
2.138847830579837816e-11
1.994672555389173415e-11
1.873314879279599167e-11
1.943958115196837170e-11
1.966937739133418212e-11
2.414019784660292719e-11
2.497363798960557275e-11
2.580888942809425040e-11
2.421733775386496364e-11
2.371420609756657313e-11
2.693361390336311908e-11
2.805526694973066317e-11
2.962996365061093951e-11
3.158886435166969279e-11
2.887488107751341784e-11
3.010776173106059031e-11
3.254576167940665952e-11
3.387999911086778941e-11
3.577069048337493389e-11
3.435249366048059127e-11
3.691621936635070834e-11
3.740872426880433745e-11
4.011956917672923440e-11
4.132116456075382073e-11
4.199016825260401666e-11
4.667035129373378182e-11
4.875347623074134978e-11
5.110933577610897171e-11
5.577844817314466644e-11
5.945638377361837382e-11
5.562419962808756896e-11
6.408817248015884210e-11
6.715235445513276158e-11
7.283750787756027332e-11
7.413850013754131952e-11
7.151540439282880827e-11
7.856240585529712479e-11
8.067323410919004799e-11
8.673324835477146542e-11
8.639825429844021907e-11
8.961226893371013267e-11
9.088412919936904814e-11
8.524440104038268157e-11
9.092987537241638500e-11
9.296245340085690329e-11
9.433553950665308581e-11
9.855160523895200695e-11
9.903541002768979464e-11
9.699169829578572866e-11
9.532041300524401435e-11
9.669195410692778437e-11
9.940720202002872722e-11
1.003782257945887881e-10
1.006078855587094279e-10
9.861796237619754602e-11
1.010919958728197129e-10
1.016715592039445317e-10
1.014930633188868833e-10
1.018822431589418084e-10
1.018169734656678086e-10
1.026166672537607480e-10
1.029502458675071503e-10
1.027033950242489094e-10
1.030844943376478791e-10
1.027475435648810498e-10
1.034254156850440690e-10
1.033581385134647689e-10
1.043451079166307670e-10
1.037310010185898660e-10
1.044598289650405477e-10
1.041663698253980819e-10
1.034643619662361110e-10
1.039913424394003514e-10
1.039123711127941787e-10
1.053925620589104750e-10
1.053981894296099778e-10
1.048335350414352540e-10
1.056512277524819597e-10
1.046251690881915424e-10
1.048940565614718091e-10
1.040325963079733275e-10
1.044628615611117752e-10
1.043664408828994184e-10
1.061782439062710367e-10
1.061657598574463446e-10
1.062738908401486026e-10
1.049813421058952175e-10
1.055861850343755926e-10
1.052543162367467382e-10
1.046020967539444201e-10
1.048064067120407847e-10
1.067729826484963646e-10
1.066290682591249019e-10
1.052415543218826484e-10
1.067851713808275672e-10
1.067365115106206925e-10
1.063760775179240210e-10
1.055535238140506047e-10
1.059071095337918285e-10
1.051989095983868038e-10
1.071518610515750032e-10
1.056695470872957681e-10
1.072443351971006329e-10
1.070266374097389614e-10
1.065960865521875212e-10
1.060996927187441528e-10
1.428127991972514301e-11
1.471641670187167519e-11
1.406006066717731877e-11
1.105179914839741161e-11
1.054155643708499174e-11
1.084683318132313496e-11
1.359012389391131625e-11
1.329940411140177719e-11
1.198003276469470341e-11
1.244222508311610590e-11
1.279502232700571131e-11
1.391859954021020419e-11
1.493914090139970654e-11
1.445986988900115408e-11
1.032969157246934945e-11
1.138170752610435696e-11
1.086225433879418361e-11
1.318407886977498750e-11
1.218499607746901744e-11
1.388896558256914024e-11
1.517108323752404949e-11
1.459614866539187774e-11
1.048553615391780281e-11
1.327284453137778507e-11
1.132984078643139429e-11
1.245983527043682993e-11
1.387507761397686769e-11
1.538374514996419352e-11
1.472739413906542869e-11
1.069697088773495879e-11
1.296045095759120119e-11
1.183064605239468386e-11
1.376225863887375796e-11
1.566816652357848031e-11
1.483486729554527438e-11
1.098037746914969672e-11
1.256050622016091305e-11
1.385384110379577683e-11
1.604565320053611989e-11
1.481664739702135209e-11
1.136355568273899036e-11
1.318561863868975041e-11
1.465770248140652379e-11
1.654799470453516588e-11
1.188140433533939972e-11
1.430358572844068966e-11
1.721647226524116199e-11
1.257999236153502126e-11
1.537337936417701146e-11
1.810633554625471564e-11
1.638902294087402090e-11
1.352323974645699793e-11
1.675650265180413691e-11
1.928193464831568000e-11
1.764087971430430880e-11
1.479535514620879750e-11
2.083834961092313297e-11
1.859111148680868823e-11
1.649123913664797915e-11
2.318991226019536191e-11
2.111776630698817396e-11
1.893730414376409950e-11
2.585214777720922472e-11
2.468174311975892829e-11
2.155702977205137552e-11
2.753140219130856375e-11
3.069924217670164704e-11
3.058556465591000983e-11
2.630807344614388934e-11
3.204191856298793521e-11
3.569159900453360299e-11
3.115154155537988905e-11
3.647300080100792427e-11
4.111124516774035899e-11
3.642501133253787606e-11
4.163790649540345532e-11
4.728692378425158659e-11
4.251633908061987117e-11
4.620247275388400748e-11
5.015350252486317365e-11
5.468946552032785273e-11
5.000300561854282872e-11
5.463214074681265936e-11
6.039290174250637118e-11
6.409261050543226286e-11
7.053781663936974778e-11
7.094398184304465086e-11
5.991129434352065121e-11
6.743946201437809363e-11
7.574608689073589686e-11
7.699472910610772404e-11
8.000892106016584226e-11
8.246824117522261243e-11
7.446569800786582898e-11
8.307556477798600752e-11
8.560086334380060720e-11
8.660164217723693445e-11
9.670913557420815945e-11
9.692714110481926001e-11
9.617510748370754764e-11
9.728631692682170379e-11
8.152442912299119522e-11
8.682243459666999732e-11
8.851661991372636318e-11
8.972943373696909526e-11
9.590726566013754901e-11
9.517623966357685807e-11
9.489944394279701507e-11
9.384755601609453288e-11
9.670253421863039055e-11
9.730070324762950700e-11
9.754346493446918487e-11
9.767294566593532073e-11
9.747436508842445066e-11
9.769462905978238895e-11
9.363015166122358014e-11
9.208065177827662320e-11
9.211496339361971830e-11
9.132409739212164215e-11
9.074861269116895569e-11
9.589941389720774909e-11
9.493138620529892636e-11
9.699698318164450473e-11
9.815550050227483456e-11
9.794885226167622616e-11
9.825892661538885448e-11
9.813623514226432597e-11
9.800075372277771360e-11
9.391153617784008034e-11
9.365614314052166797e-11
9.602616527024417744e-11
9.765392529453195588e-11
9.875539549866770735e-11
9.912361800024931470e-11
9.879027836073449370e-11
9.856930059931454394e-11
9.900720917316345031e-11
9.861394135687195614e-11
9.581160307350609118e-11
9.859117025714512876e-11
9.740842329666385836e-11
9.961896678637687707e-11
9.962515038918676028e-11
9.944160452801773185e-11
9.946824437078655397e-11
9.948266962550335315e-11
9.994523816538808667e-11
9.917099933971403678e-11
9.976202731994887292e-11
1.000113722230245298e-10
9.992740888994246399e-11
1.001177059792908803e-10
1.002337932075888698e-10
1.004975520592807233e-10
1.004557793732979583e-10
2.253193028993572405e-11
2.209044554721851967e-11
2.604205927129460748e-11
2.652464569399154018e-11
2.599452690467788543e-11
2.633725898649266145e-11
2.679342904071888401e-11
2.227082006764237088e-11
2.182797625027533190e-11
2.549436069034762381e-11
2.528447213726907688e-11
2.465726209662105918e-11
2.431190532735925328e-11
2.380330053458580440e-11
2.268727450254920413e-11
2.321556840762412299e-11
2.587070563011200813e-11
2.647098484602665563e-11
2.712106413253186592e-11
2.206952767903114258e-11
2.508915191707554014e-11
2.393788220365873197e-11
2.297874836078548912e-11
2.577322176957509239e-11
2.661243495279745774e-11
2.748327448294099451e-11
2.239535527442879595e-11
2.477072799297155848e-11
2.357179761665848011e-11
2.573593450404322203e-11
2.682142564044053686e-11
2.795682616719791649e-11
2.283708432149843293e-11
2.450897235990754051e-11
2.601325086568297943e-11
2.710498790500673926e-11
2.858036290207187343e-11
2.343395297309494007e-11
2.553161614171280582e-11
2.757883464813702870e-11
2.938908253885339559e-11
2.424508636310000358e-11
2.633434060695031340e-11
2.789264489345823423e-11
3.035722044844487664e-11
2.534278267435983764e-11
2.869596139497490044e-11
3.158801494987383279e-11
2.683036254385804526e-11
3.038615819836961734e-11
3.356250140988208244e-11
2.898757685995906410e-11
3.265182953678332389e-11
3.595417132372522342e-11
3.493834503664057794e-11
3.812826062361343375e-11
3.155528688977738731e-11
3.729435970225685977e-11
4.037658099316059056e-11
3.626375034344505353e-11
4.030070801506004514e-11
4.499219401091630683e-11
8.910795236945021378e-11
8.931743024597664153e-11
8.968670670250601288e-11
8.973485036149615623e-11
9.019950688435503452e-11
4.115867172823032582e-11
4.530377239597190295e-11
4.994253108995188316e-11
9.013641054210808540e-11
8.964435313474668692e-11
8.926606983625570612e-11
8.879263148241559575e-11
8.840403568886433925e-11
9.065414480785855835e-11
9.064006036383195992e-11
4.644199845110210036e-11
5.132410041174207317e-11
5.539760449121002411e-11
8.989178088184245801e-11
8.936509665794514313e-11
8.874332018438103923e-11
8.807507570875734045e-11
8.751916744319475391e-11
8.713397016945812481e-11
8.635617670764818243e-11
9.212598466232818662e-11
9.184798634866049147e-11
9.163609019029921803e-11
9.127561385132147925e-11
9.119683769882873736e-11
9.037142381541604393e-11
9.089491539115972325e-11
9.170556358168490021e-11
9.224326282429042292e-11
9.211851095980536907e-11
9.121959848874245347e-11
9.179111227921160658e-11
9.229262877722016085e-11
9.258329243217201940e-11
5.778994389865864733e-11
6.157291510715837551e-11
6.295362668563089323e-11
6.523188742331850698e-11
6.742324250030496390e-11
6.877195614071834076e-11
7.092738611406558040e-11
7.353034350837533122e-11
5.235194658892699656e-11
8.919526036040291938e-11
8.804483073701842679e-11
8.579482778959664981e-11
8.482777523080224258e-11
8.701419171499386817e-11
9.160668238480723039e-11
8.977233203142546325e-11
9.067537430661599657e-11
8.413849695771179803e-11
8.284875287854274510e-11
7.538974011721203828e-11
7.745905952853531406e-11
9.225883390436919588e-11
9.257218441665071030e-11
5.920681616104971828e-11
6.748743977662565277e-11
7.320257713443330062e-11
8.810746593498504264e-11
8.606641378247541372e-11
8.941465675527504663e-11
7.926355618025517030e-11
8.047509917048492045e-11
8.199925610922592815e-11
8.392677048668533385e-11
7.800451414656360615e-11
8.770565734843478263e-11
8.539067290040122072e-11
8.225439840880428391e-11
3.605547703407830567e-11
3.629673092320481683e-11
3.569289979676229411e-11
3.568663800575564503e-11
3.516008243493400896e-11
3.653519342455295160e-11
3.693249882171140062e-11
3.720856354261914450e-11
3.774240010863989147e-11
3.606598618557846884e-11
3.483949858105530935e-11
3.546009059918470381e-11
3.801516184130471497e-11
3.880994371995077832e-11
3.668315636824176001e-11
3.734952123010411441e-11
3.597159219776435160e-11
3.520124560919750561e-11
3.898493885226336349e-11
4.020248484970008133e-11
4.092088134662194219e-11
3.987228110294015093e-11
3.796420437839938136e-11
3.676538689023496055e-11
3.569210020740754361e-11
4.167805147910070805e-11
4.034416827697494173e-11
3.904197108718713278e-11
3.771066187436780122e-11
3.635771044001235556e-11
4.131156017337922100e-11
4.294125935226326386e-11
3.926689644959521848e-11
3.726109181549647848e-11
4.271991857980430173e-11
4.452336267611382632e-11
4.070652215280524545e-11
4.419413922728490438e-11
3.848603427480295672e-11
4.591669704256019493e-11
4.013761004771364521e-11
4.277438268253613446e-11
4.502944452154182949e-11
4.742428159993021236e-11
4.216170530685749389e-11
4.484107509186619148e-11
8.206302948129217920e-11
8.254881130839880165e-11
8.219314358413986648e-11
8.262703034359187357e-11
4.712144800852625804e-11
5.041155628490210600e-11
4.398690469214100365e-11
8.180354148572874041e-11
8.084090238752742778e-11
8.080272879084169524e-11
7.997002157024023460e-11
7.996242621910664352e-11
8.239463358152445445e-11
8.192388653482757798e-11
7.894224693522755658e-11
7.912889532886774502e-11
5.021227428612161349e-11
5.351360070551187166e-11
4.593230236984627567e-11
7.897530226666314856e-11
8.117124418346683431e-11
7.984989069674312412e-11
8.167982909291290151e-11
6.875216111509000264e-11
7.000068089503317409e-11
6.778327889469252495e-11
7.084342805076212179e-11
7.204946602815792727e-11
7.774203136618733576e-11
7.672488930328536373e-11
7.542987704839606771e-11
7.458774562335673889e-11
5.367268896920408054e-11
5.676278064188648321e-11
5.753970214128092838e-11
6.019520233425986524e-11
6.570962832837218556e-11
6.385244673356606991e-11
6.800667390661249685e-11
6.160918583985173583e-11
6.630103759857555400e-11
4.986854099010638597e-11
7.819219418193742268e-11
7.939251061189733075e-11
8.070916912959542391e-11
7.287392002554272071e-11
7.052831121723089139e-11
7.650229479703665202e-11
7.456861803021823684e-11
6.895740383540010627e-11
5.404487779771886829e-11
5.854412532363292389e-11
6.347070133623250375e-11
7.760686850490296043e-11
7.238581401911978428e-11
7.518166378096754662e-11
6.738440155286616185e-11
6.616894882492052525e-11
6.512692751373232183e-11
5.616346019400851473e-11
5.804367106141927218e-11
5.997650325315958297e-11
6.197045720260811266e-11
6.403177226220141607e-11
3.228247844413493231e-12
3.926207356206461519e-12
2.982715444238965961e-12
2.515685186404309417e-12
2.037855294912606261e-12
1.694202460859250095e-12
1.089226224852969895e-12
8.266062325205646621e-13
1.086235889233605848e-13
-3.085632026556967582e-13
-9.145115557329577906e-13
4.871517069071721914e-12
4.457860000350810761e-12
2.282883388891010828e-13
-1.565705968161162611e-12
-2.041180565452507615e-12
1.023493147713405887e-11
1.087150860223200026e-11
9.838552054904060915e-12
8.808219286486191403e-12
9.403369102865829466e-12
1.141438208833739523e-11
1.190384222451732352e-11
1.359718330730835671e-11
1.396635288868041724e-11
1.293521402470118915e-11
1.219869277296374587e-11
5.331827323733292427e-12
5.825101107667796376e-12
6.276970530555698768e-12
6.800092350881808562e-12
7.320578013331971593e-12
7.793241643853093403e-12
8.375972995118997459e-12
1.446918535099231240e-11
1.499654659316367213e-11
1.539792644431789278e-11
1.603231819932504875e-11
-3.469393443161490268e-12
-2.535248315954438678e-12
-4.163157935505221060e-12
-4.970402072798714357e-12
-5.335553849821518032e-12
-6.259318032571522714e-12
1.640742201356155780e-11
1.707624018903911539e-11
2.161980347391010797e-11
2.241345681153086085e-11
2.133078617012045313e-11
2.612065549988181952e-11
2.683399941576690361e-11
2.571604046849310551e-11
2.490682831432997579e-11
2.460750175221367760e-11
2.395409386714012092e-11
2.350672375538731300e-11
2.302140421373592016e-11
3.679135452733985053e-11
3.738328946347941378e-11
3.637625346551844648e-11
3.558411337789111444e-11
3.541338171824532399e-11
2.751527257396180555e-11
2.795982382579533789e-11
1.746002508597302849e-11
1.812667944395869987e-11
2.059710781101282702e-11
2.025531114464324854e-11
1.918752645825799518e-11
1.959393148461783814e-11
1.851744496397560211e-11
3.761008828204833487e-11
3.844726552721581436e-11
3.470428467517689336e-11
3.443097782982801002e-11
2.962804216091256192e-11
3.022165132246603168e-11
2.909332225643259907e-11
2.842727623759456099e-11
3.844437800409170612e-11
3.957175859273762504e-11
3.368728351320361953e-11
3.342134159772148411e-11
3.238292034918385356e-11
3.262096939876135211e-11
3.160989840011036472e-11
3.131734564560131114e-11
3.060153036900863245e-11
4.121762844751765708e-11
4.202727501210342927e-11
4.076320062632229201e-11
4.217233964508747109e-11
4.338678220193176591e-11
4.671863370447154870e-11
4.785005242077970699e-11
4.637010048434931668e-11
4.542077180404055390e-11
4.484597839703385695e-11
4.359844235315215016e-11
4.809450552160076050e-11
4.930224803990006409e-11
4.936780810671547021e-11
8.208954580644470685e-11
8.292764494835361722e-11
8.203723206636725978e-11
7.206421551149565360e-11
7.069510297739471377e-11
7.204776765540805023e-11
7.338586909914576929e-11
8.092107225346717956e-11
8.104358207733643573e-11
8.297990538839999163e-11
8.373050416424474797e-11
7.340241102122387994e-11
7.471915247975180785e-11
7.467641666831408115e-11
7.607454356936042994e-11
8.016227986981168038e-11
7.993299798339161002e-11
7.749653623213241363e-11
7.869807426357121157e-11
7.740659742408706109e-11
8.363278183951319934e-11
8.451422598474275454e-11
7.577272192383196339e-11
8.442209333450516160e-11
8.529575423102288253e-11
8.607650381802525387e-11
8.518823407640812750e-11
8.763213009763776339e-11
8.685470529322908856e-11
8.673677615757153726e-11
8.595969547510360999e-11
8.840704353463282208e-11
8.750477559262658851e-11
5.467407915149534659e-12
8.828959248879019723e-11
8.918041684807620648e-11
8.905622732614134097e-11
8.994859981774600624e-11
1.300103520598105237e-11
8.978362068418615358e-11
9.071008404504145720e-11
2.304940728195169218e-11
9.076520640186421860e-11
9.146774951586890914e-11
3.167809640235522921e-11
9.135656839626158775e-11
9.221799472431111125e-11
9.198927543317058775e-11
9.296359459435491432e-11
9.295455820587156130e-11
9.370362150482809510e-11
9.357769236604012646e-11
9.443802311823768954e-11
9.426221499283936738e-11
9.515901263687495192e-11
9.487019806838182152e-11
9.586635123442494482e-11
9.655910611034002734e-11
9.557910877985552551e-11
9.723770986844531299e-11
9.636544294368247944e-11
9.717552245468586115e-11
9.790304481352925540e-11
9.781153723193852091e-11
9.855433769869576051e-11
9.834968562704134952e-11
9.919323111589509259e-11
9.982376264376202083e-11
9.921060038223193748e-11
9.980482974224545802e-11
1.004494488424048498e-10
1.004112836941077663e-10
1.010697195220723737e-10
1.009581684819309170e-10
1.016861542425318787e-10
1.015469994231330047e-10
1.022968985461385848e-10
1.020733026752160529e-10
1.029021303866695871e-10
1.026139139157887929e-10
1.035016666131553807e-10
1.031421971204127209e-10
1.040969423387136071e-10
1.037645972273599196e-10
1.046880291234606569e-10
1.106417993856682334e-10
1.118417194259813834e-10
1.111287048987191306e-10
1.044105529562661925e-10
1.052741883569530714e-10
1.098447785108366165e-10
1.102806526814319260e-10
1.088515522795708477e-10
1.094546355204838463e-10
1.058563640324299049e-10
1.049398925393932497e-10
1.055276017488370194e-10
1.064315422157915043e-10
1.087749131962113404e-10
1.084612314604240052e-10
1.063231523717590441e-10
1.070017857619325236e-10
1.079150417658359944e-10
1.081525268320828406e-10
1.072822877877844415e-10
1.075667602013239871e-10
1.067906569204380576e-10
3.808263322084429944e-12
-5.080142843325925771e-13
-8.449377577629116740e-13
-9.706039703356850324e-13
3.988599946691560439e-12
4.360624527388732253e-12
-9.660282465130628136e-13
-1.536085141356646596e-12
-1.323674475789754639e-12
-1.882650447455354255e-12
1.080490166353654726e-11
1.285048086549577886e-11
4.906391486789098554e-12
8.883583099618272071e-12
4.503617420567876489e-12
-1.285109346054554054e-12
-1.753840513416621556e-12
-2.350748497315333015e-12
1.053450207440012279e-11
1.003017488754555901e-11
9.510951777033680682e-12
5.651246873271797952e-12
5.032000626961957628e-12
6.702370826425879558e-12
7.918535392854598665e-12
9.374404713221081789e-12
8.450042313084073858e-12
9.044851000582985373e-12
4.743138852144041308e-12
1.527257852483233184e-11
1.589397115052059007e-11
2.234182484181898562e-11
-1.265894859219134261e-12
-6.201939813480559628e-12
-2.185286446264942525e-12
-3.396805750849606894e-12
-5.084982809381195084e-12
-1.997339555823930087e-12
9.867656995689980534e-12
5.655382268280560440e-12
6.575589838072530720e-12
7.578780953711123490e-12
8.385565689577090218e-12
9.538342021376330435e-12
8.967272291988860511e-12
5.019145015529679476e-12
2.206193183690574518e-11
2.163116608929273987e-11
2.644922307506572978e-11
2.689436188039160402e-11
2.560519258639258141e-11
3.614928037656113038e-11
3.518468274978429837e-11
2.703757041689596948e-11
1.541313255496442344e-11
1.575508610731370746e-11
1.621419022522610397e-11
1.674110836919831292e-11
2.096494516802199511e-11
-1.239291710748089465e-12
-6.131508249317510353e-12
-3.188342199189657220e-12
-4.680286229867502193e-12
-2.373159245650865617e-12
7.077207136068845320e-12
6.056947274802057454e-12
8.002765759117236621e-12
7.603164155782532956e-12
8.850272611272568081e-12
9.623302050190600076e-12
5.356739268626871091e-12
2.141761805073669669e-11
2.087486718116379841e-11
2.112705784713212788e-11
2.061564485136188862e-11
3.470361561934847850e-11
3.444427097362319055e-11
2.755568069246559063e-11
1.586761321463025091e-11
1.672893082408732490e-11
1.771841071234378508e-11
2.015151150731227630e-11
1.896807524685668679e-11
2.021810093076643496e-11
2.069971952658902274e-11
-1.274432516490539085e-12
-6.042570189970005210e-12
-4.113041739006503705e-12
-2.446390741474663893e-12
6.648002654382945582e-12
7.646133638577718125e-12
8.530113326873798541e-12
9.665607660767151444e-12
5.724618768136289937e-12
2.130823112763598007e-11
3.392576956736588318e-11
3.387640113350263432e-11
3.413225760723136845e-11
2.998172605461939888e-11
2.908743290571172842e-11
2.812828381885279230e-11
1.627644777316910327e-11
1.746725880701012925e-11
1.842248683166152092e-11
1.940285080070355904e-11
2.017916603587924831e-11
2.072018853127859038e-11
-1.446723714806020252e-12
-5.930065110461593519e-12
-3.633821520666432710e-12
7.097240120022190884e-12
8.361410922230150319e-12
9.702130403142909701e-12
6.239442788401652224e-12
2.148505758539739125e-11
3.444040559231457541e-11
3.293245324583526411e-11
3.336735031813986622e-11
3.347449631990755817e-11
3.384919595143196039e-11
3.192858701902992174e-11
3.080597555685920764e-11
2.973282674005513261e-11
2.862310603094865577e-11
1.691876747344739327e-11
1.850928276539493994e-11
1.985715037542287375e-11
2.077407492974871684e-11
-1.427958340920814870e-12
-5.790115399631338102e-12
-2.864024245346668179e-12
7.960333889432767370e-12
9.640021917390950383e-12
6.976766055883080283e-12
2.149141574069980127e-11
3.393776359810659916e-11
3.467961246395435366e-11
3.258543339409514006e-11
3.321808910040508077e-11
3.335401790086891050e-11
3.098588325366706078e-11
2.938606426887659371e-11
1.774532790148626047e-11
1.988738525974273664e-11
-5.614692579264076528e-12
-1.700766811556509240e-12
9.471664389785894802e-12
7.647255171186390730e-12
2.153697009369596903e-11
3.402239295514470402e-11
3.498956094246128950e-11
3.220364634214922469e-11
3.309829493217079433e-11
3.039247156098717970e-11
4.709875520611436035e-11
4.526771860411094274e-11
1.855826840277698156e-11
2.028655269057326775e-11
-5.392942606003934700e-12
-1.958886481715817932e-12
1.009272709763632644e-11
8.208051124512953986e-12
2.182350074647610243e-11
3.378222579208411815e-11
3.539628728099877688e-11
3.178074040455674410e-11
5.238155678485293820e-11
5.050216077821225675e-11
5.147974998135901702e-11
4.815203157219240406e-11
4.937900020466201542e-11
4.656861299724947051e-11
1.962842228404668916e-11
-1.738596250478731728e-12
-5.115555398677923684e-12
5.297577747579247823e-11
6.977187707263616388e-11
6.866297276511662610e-11
6.758514228034229816e-11
6.640997495078348871e-11
6.524049157698281910e-11
6.427778709269293410e-11
1.022182499001947604e-11
2.178752147316047440e-11
3.616266267169918832e-11
3.323938996116238693e-11
5.158724256679093852e-11
5.018995559781499294e-11
5.224822347618836458e-11
4.845308403411788635e-11
3.769351640447952740e-11
2.157534177058527391e-11
-1.975592916463377069e-12
-4.768014492130831478e-12
8.250253877826420541e-11
8.152760460368403819e-11
5.417403170791329736e-11
5.614012052808761683e-11
5.828505352838960515e-11
6.056406947345622222e-11
6.895270351210693050e-11
6.676619363956149520e-11
6.783728567066820331e-11
6.257855841125822557e-11
6.540319494743363273e-11
6.414705229264344408e-11
1.068843181799873620e-11
2.321579708709347387e-11
3.489647090508553746e-11
5.025184771800408169e-11
5.225697874568206372e-11
3.943433754513476069e-11
3.731353591439912775e-11
2.311241505182182789e-11
-7.406540784111951124e-13
-4.337680451609866349e-12
8.295266811540538012e-11
7.064057914066895780e-11
7.214023739628131635e-11
5.370604285955927040e-11
5.647119733076643640e-11
6.914275074139924703e-11
5.967394338777868516e-11
6.661986804910252664e-11
6.323240927093160904e-11
1.148379800127606550e-11
4.062997885422286553e-11
3.906768240280000674e-11
2.539656674649752467e-11
1.253694142868911295e-11
-3.843578703675607065e-12
1.488806364452858634e-12
-3.343121847931346349e-12
2.650530124421707136e-12
-2.864467113150799049e-12
3.670972171440427053e-12
-2.476727209014050565e-12
3.868350141806182564e-12
3.658435682032062152e-12
7.595596113005921358e-12
8.317118369782047314e-11
8.298594367157995815e-11
7.130802124102287744e-11
7.344562905708424396e-11
4.285859537005681603e-11
4.107861520432339252e-11
2.674397527726172930e-11
1.435878336162893788e-11
-2.085487731339565258e-12
5.821076556576578724e-12
9.330061347706515637e-12
8.365668611023506278e-11
8.276994033163741921e-11
8.331163406193082585e-11
8.210944364097862126e-11
8.254166598178302614e-11
4.495906963149563688e-11
3.041581214184950291e-11
1.592491625834110615e-11
1.182622607798562233e-11
1.537526421134761833e-11
1.835929428868269406e-11
8.416053254277828240e-11
8.329861958848425375e-11
8.282466585955298768e-11
8.235425121766293331e-11
8.184924137012311708e-11
8.121168260963548307e-11
8.666482932019073598e-11
8.822740540599701759e-11
6.480580297519504507e-11
6.735504055693940764e-11
3.533123511730102657e-11
4.960728964047939162e-11
3.670516294618181463e-11
1.889816360104355981e-11
1.918973302556711369e-11
2.162566180538493972e-11
2.338149569162300464e-11
8.863098580003029768e-11
8.924747426784108665e-11
8.727735368559748217e-11
8.774316892770135075e-11
8.497605072469689728e-11
8.580224749389658203e-11
8.407399967952900412e-11
8.340418537114444737e-11
8.259438553059146312e-11
8.196166279147648293e-11
8.112943607393365458e-11
7.856224382138822255e-11
8.006469566098464252e-11
8.601052302109392658e-11
6.996651143248589097e-11
9.020043038781219062e-11
5.467350061755059638e-11
6.039597523492127391e-11
6.410579624289913305e-11
6.725320013172914529e-11
4.064898329535597642e-11
4.281448847749206172e-11
2.336373590696479171e-11
2.574232404681183794e-11
2.739519316431228883e-11
8.671101928160400140e-11
8.449463079402449397e-11
8.313707863516074355e-11
7.676540945747929747e-11
7.848451266180724299e-11
8.188431813745437696e-11
8.000959260075689051e-11
8.528067270680540140e-11
7.339992631353337207e-11
7.054617434765518992e-11
4.624465492040554613e-11
4.779544572400923092e-11
2.995488901264438829e-11
3.048625800264329548e-11
2.848869329297220742e-11
3.132444013389916267e-11
3.350865763321078112e-11
7.600486299079207608e-11
8.328444827747799928e-11
7.838145939539546113e-11
8.110719925185890298e-11
5.100602431917250457e-11