<?xml version="1.0" encoding="UTF-8"?>
<VTKFile type="UnstructuredGrid" version="0.1" byte_order="LittleEndian">
<UnstructuredGrid>
<Piece NumberOfPoints="504" NumberOfCells="911">
<PointData>
<DataArray type="Float64" Name="Temperature_@_t=0" Format="ascii">
-1.461129744924562601e+00 
-4.605650481221914561e-01 
-1.461129744924363649e+00 
-1.461129744924733131e+00 
-6.815885703420008213e-01 
-1.461129744924818397e+00 
3.653538009120893548e-02  
-8.279735221241821819e-01 
-8.993429923659164160e-01 
-1.461129744924818397e+00 
-1.461129744924818397e+00 
-9.213921927689057156e-01 
-1.461129744924818397e+00 
-9.787631923899766662e-01 
-1.461129744924818397e+00 
-9.927561624110126104e-01 
-1.948172993233292516e-01 
-1.461129744924818397e+00 
-1.006194781208876066e+00 
-1.461129744924818397e+00 
-9.829839035681970927e-01 
2.953063136563400803e-01  
-1.948172993233292516e-01 
-1.461129744924818397e+00 
-9.362105564009084446e-01 
-1.461129744924818397e+00 
-1.015614603736480603e+00 
-3.513680342088605357e-01 
-1.948172993233292516e-01 
-1.461129744924818397e+00 
-9.946377192812860812e-01 
-1.704651369079186907e+00 
-2.047495431188508519e-01 
-1.948172993233292516e-01 
-1.948172993233356465e+00 
-1.176130863074149602e-01 
-1.948172993233292516e-01 
-1.734060995080142220e+00 
-1.948172993233356465e+00 
1.574412794442991981e-01  
-1.948172993233292516e-01 
-1.831602163642912728e+00 
-1.948172993232731187e+00 
2.177309866289078855e-01  
-1.948172993233292516e-01 
-1.948172993233356465e+00 
-1.610706919564563577e+00 
3.255313941384656573e-01  
-1.948172993233292516e-01 
-1.158653479449355927e+00 
-1.071495146278294897e+00 
3.270375206409994462e-01  
-1.948172993233292516e-01 
-1.948172993233292516e-01 
1.998955804801312297e-01  
-1.948172993233292516e-01 
-3.231404006953653152e-03 
-1.948172993233292516e-01 
-1.465664618206119485e-02 
-1.948172993233292516e-01 
-1.948172993233292516e-01 
1.745868442727669390e-01  
-2.342543178798450754e-01 
3.629054696435787264e-01  
-1.948172993233292516e-01 
-1.948172993233292516e-01 
2.326153219109414749e-01  
1.532248156660216409e-01  
-1.948172993233292516e-01 
1.163947448331441592e-01  
-1.948172993233292516e-01 
-1.282244773691445516e-01 
-7.178596653888575929e-01 
-8.426271374551106419e-01 
-1.948172993233292516e-01 
1.399323890301445772e+00  
-1.948172993233292516e-01 
-1.948172993233292516e-01 
1.299807249615753335e+00  
-1.948172993233292516e-01 
-1.948172993233292516e-01 
2.985205539134199171e-01  
-1.948172993233292516e-01 
-3.288758151438742061e-01 
-6.668334661370067806e-01 
-1.948172993233292516e-01 
2.619344348769345743e-01  
1.136363661677819437e+00  
-1.948172993233292516e-01 
6.782615673124610112e-01  
-1.948172993233292516e-01 
3.524929351075343220e-01  
7.187375254346761722e-02  
1.769525250913375203e-01  
-1.948172993233292516e-01 
2.067374796660033098e-01  
-1.948172993233292516e-01 
-1.948172993233292516e-01 
8.801410425482458777e-01  
-2.554897434761187469e-01 
1.100780880646539117e+00  
-1.948172993233292516e-01 
5.723414017313643853e-01  
7.076174621713562374e-01  
-1.948172993233292516e-01 
9.645387749563383295e-01  
7.999008853307714162e-01  
7.697904275021869580e-01  
-1.948172993233292516e-01 
9.387201086800018857e-01  
7.238419820432682172e-01  
7.846821469785254521e-01  
9.673583281299329428e-01  
-1.948172993233292516e-01 
-1.948172993233292516e-01 
-1.948172993233292516e-01 
9.721958672451478378e-01  
-1.948172993233292516e-01 
-2.245168426468922007e-01 
3.819158441557419792e-01  
5.608902561189665903e-01  
-1.948172993233292516e-01 
8.167793726693162171e-01  
-1.948172993233292516e-01 
1.023167958747421835e+00  
1.135860385788134863e+00  
-1.948172993232688555e-01 
-5.632587870256315910e-01 
-8.150471217962262926e-01 
-2.936553342451020399e-01 
-5.416190033804468840e-02 
1.086347509564234315e+00  
-1.948172993233292516e-01 
-1.948172993233292516e-01 
9.916984425382224799e-01  
-6.590529102143136697e-01 
1.036268542543837157e+00  
-1.948172993233292516e-01 
-1.948172993233292516e-01 
9.152827579898143995e-01  
1.062194879857145224e+00  
-1.948172993233292516e-01 
-1.948172993233292516e-01 
1.055781959333558007e+00  
-1.948172993233292516e-01 
1.029459229908411544e+00  
-1.948172993233292516e-01 
1.038902452646766505e+00  
-1.948172993233292516e-01 
9.449323730069636440e-01  
1.082810980885824392e+00  
-1.948172993233292516e-01 
-1.948172993233292516e-01 
9.091291747898821995e-01  
1.099233641278601681e+00  
-1.948172993233292516e-01 
1.104169222334860478e+00  
-1.948172993233292516e-01 
-1.948172993233292516e-01 
1.087149046366448601e+00  
-1.948172993233292516e-01 
9.702793443234440929e-01  
-1.948172993233292516e-01 
1.074866100858628215e+00  
1.156021718736610637e+00  
-1.948172993233292516e-01 
1.095815305749624713e+00  
-1.948172993232688555e-01 
-1.948172993232688555e-01 
9.759432939869157053e-01  
1.084958209575972887e+00  
-1.948172993233292516e-01 
1.134245537841366058e+00  
-1.948172993233292516e-01 
1.081628005208074228e+00  
-1.948172993233292516e-01 
-1.948172993233292516e-01 
9.828860714562779322e-01  
-1.948172993233292516e-01 
1.044079706220827575e+00  
1.204412786690454595e+00  
-1.130961271445585226e-02 
-7.675305670676380032e-01 
-7.745193289196663500e-01 
-1.289372975862306703e+00 
-1.302764264571464992e+00 
-1.430118853742214924e+00 
-1.348981041445767914e+00 
-5.719413294522723845e-01 
-1.598291861511256684e+00 
-1.858838075902610854e+00 
-1.775371515483072926e+00 
-1.416359625296422564e+00 
-1.308539177673139875e+00 
-1.649129098940363747e+00 
-2.207821157035596116e+00 
-2.215684308854235951e+00 
-1.837951908409934276e+00 
-1.444161554379661538e+00 
-1.386303754105426833e+00 
-1.461797744560158208e+00 
-2.172026796468173870e+00 
-2.352452882896670872e+00 
-2.163158080054984111e+00 
-1.154157407613809028e+00 
-1.863118201167878851e+00 
-2.122652529665515431e+00 
-2.074130171280671675e+00 
-8.699889825665536591e-01 
-1.447903717269980461e+00 
-1.683250291271065180e+00 
-1.785786763179032732e+00 
-6.213277662153018355e-01 
-1.037398599446873959e+00 
-1.178710567500900197e+00 
-1.224181394975857984e+00 
-4.258912621482409122e-01 
-6.859236939491211160e-01 
-6.880837637143031316e-01 
-6.378470854877491547e-01 
-4.642494668657377588e-01 
-2.974255638126805934e-01 
-3.997481021193607376e-01 
-2.341880800373132843e-01 
-1.424291527677041813e-01 
-1.425591007975981483e-01 
-2.341686976748178495e-01 
-1.984155574564852031e-01 
1.605221493315411863e-01  
3.796815207482495680e-01  
2.397388797939470351e-01  
-2.278651255494423822e-02 
-1.503647849919502733e-01 
-7.283530842266259242e-01 
-8.244500839032298245e-01 
-2.006420442329499565e-01 
-7.601830585002744556e-02 
4.229596130574009294e-01  
8.092019606812073107e-01  
7.833452029072418554e-01  
4.156975404611102931e-01  
-5.829845466439564916e-02 
-4.258563501005596663e-01 
-5.911502071225527288e-01 
-6.688497675723965585e-01 
-8.100072869979726420e-01 
-7.626229899912573273e-01 
-5.336071313205366096e-01 
8.136142657086224972e-01  
-2.020684779962493849e-01 
9.313100745373503742e-03  
5.770186930407703585e-01  
1.079387739488709030e+00  
1.217341198147209980e+00  
9.709721076937398720e-01  
4.823073518294336282e-01  
-7.626667982128765289e-02 
-5.034954251819954152e-01 
-6.908400299535628619e-01 
-5.002306067922290822e-01 
-1.861633132092492815e-01 
1.933640548930952718e-01  
-2.693097538540882852e-01 
5.122181939913161841e-01  
2.734768763866668451e-02  
-2.111804219683222072e-01 
2.204280339424258273e-02  
6.552068776198325395e-01  
1.237676681646007637e+00  
1.467183349105482648e+00  
1.369946629745982136e+00  
1.034776938188826989e+00  
-2.698025947387350243e-01 
5.634167924803250571e-01  
7.528483728464152591e-02  
-9.449747319234802490e-02 
1.744033639033091276e-01  
4.199619236062517302e-01  
6.355815873492360879e-01  
5.775505183615337046e-01  
7.522712125766588542e-01  
-3.879254755204328831e-01 
-4.304429808073564345e-01 
-2.595133543542260668e-02 
-7.338421147592271154e-01 
-1.053222617554467888e+00 
2.676806791635044647e-02  
3.865793568222102294e-01  
-1.017689934804820950e+00 
-6.870491824804503267e-01 
6.503993757200987602e-01  
1.326445307703352228e+00  
1.589903581506405317e+00  
1.577431793486709921e+00  
1.375793270577332805e+00  
1.060966491116460020e+00  
3.039051137362775989e-01  
6.975877144371906979e-01  
5.155230623829538672e-01  
6.515255344566526219e-01  
7.410592440115806312e-01  
7.996287191872966105e-01  
8.157460547923847116e-01  
-7.127537135054922146e-01 
-2.214191745844686920e-01 
4.813757137372931538e-01  
-1.089578190114764311e+00 
-1.310574864143461582e+00 
2.258512329830182352e-01  
3.587264266196257267e-01  
-5.436726144136514449e-01 
-1.193516046394620389e+00 
1.105595608987584910e+00  
1.464240076027238047e+00  
1.622125712489378202e+00  
1.658269976603094165e+00  
1.534396826388046975e+00  
1.317736990629668981e+00  
1.067276905934420483e+00  
8.047806104302708263e-01  
8.571845318251689605e-01  
8.627332896136294949e-01  
8.590756978342710681e-01  
8.379927061399712329e-01  
7.960850076536303277e-01  
-6.400905137003860546e-01 
1.432092343574140614e-01  
8.255218168482088004e-01  
-1.145787192526142917e+00 
-1.284787426361106100e+00 
3.419729377127964653e-01  
-2.829641300828029671e-01 
-1.019688249161788463e+00 
1.294523704456537416e+00  
1.545531092697672193e+00  
1.634905096487784704e+00  
1.578964130503948127e+00  
1.422754888436998044e+00  
1.228584542136388791e+00  
1.043933653436340592e+00  
9.843545657257664061e-01  
9.213444412765170455e-01  
8.564979674339951998e-01  
7.746948098617849610e-01  
6.757821676970934277e-01  
-7.739394953972009716e-01 
-2.661823394250859565e-01 
4.077863842455258236e-01  
9.482330771541569447e-01  
-1.041056170021533944e+00 
-1.061987500344571345e+00 
-7.911259827437788772e-04 
-6.812741227451510895e-01 
3.831375121260975902e-01  
1.300008505043024343e+00  
1.478466904139565941e+00  
1.276403011677302857e+00  
1.508970366059486423e+00  
1.429734686005417643e+00  
1.127476719795083682e+00  
1.279747904961823224e-01  
9.905708490850315684e-01  
8.677186072138169948e-01  
3.304058758223504810e-01  
7.292250370700799067e-01  
5.588795642464106095e-01  
-5.917333638761874681e-01 
-6.156820961359699140e-02 
4.650282115494519530e-01  
8.830129632104330994e-01  
-8.457550310880037614e-01 
-7.681136982625389464e-01 
-3.237460969037897485e-01 
-3.374986672724844539e-03 
5.590914403436499924e-01  
1.157806459668222487e+00  
1.284816272639886847e+00  
1.181631461317010690e+00  
1.254432811406786641e+00  
1.304921212674855724e+00  
1.040543380979897847e+00  
4.362908987263267591e-01  
-3.478979634019196965e-01 
-7.958223067798257944e-01 
-5.939190258842472758e-01 
8.667650791038568059e-01  
6.602368574772867760e-01  
-2.214487759770236153e-01 
1.305931935989406156e-01  
4.146519601906675234e-01  
-4.771073745777698605e-01 
-5.319748649998246037e-02 
3.486888255824851512e-01  
6.688793205531169406e-01  
-6.568951607827102634e-01 
-4.782892979886241847e-01 
-1.886085930165108948e-01 
4.090050227941333105e-01  
8.216626743599704241e-01  
1.001386527159866091e+00  
1.056584979211720565e+00  
1.052001331087126346e+00  
8.351252668670099411e-01  
4.192513489044813468e-02  
-6.446633226974540776e-01 
-8.017243265209685887e-01 
-6.737527602139721239e-01 
5.526652009734789317e-01  
2.361956882195386243e-01  
-4.036031845546972363e-01 
-8.487910810998755551e-02 
-4.290354975324248699e-01 
-1.455184034672356574e-01 
1.281128054914688619e-01  
3.368298472757942363e-01  
3.621409779022428665e-01  
-4.756754479757887566e-01 
-2.281476743971779797e-01 
1.337860409980180521e-01  
5.962918264366408039e-01  
5.461377906141819949e-01  
6.764297360932687297e-01  
7.709630815747345878e-01  
4.423782309428361259e-01  
3.415932544369866264e-01  
-4.193999885139305661e-01 
-7.791117404948977310e-01 
-7.513204238159687520e-01 
2.281672158801484329e-02  
-2.999899816215361170e-01 
-5.782376661667854023e-01 
-4.125538694252099958e-01 
-2.726251556679244459e-01 
-1.223302261966523474e-01 
-2.705856969743081208e-02 
4.040793640257334118e-02  
-3.551996310700360482e-01 
-2.762596466129707551e-02 
5.104971261512787351e-01  
1.858006116494834714e-01  
3.264581901114524953e-01  
-2.379143135863159841e-02 
-2.926215809114864896e-01 
4.335689346267486144e-01  
-1.756821512947226438e-01 
-6.705085527387950606e-01 
-7.557277369813277801e-01 
-4.935166499311662847e-01 
-6.763667182999597571e-01 
-2.108167928859643325e-01 
-3.970002441624274070e-01 
-3.762987087675355724e-01 
-3.266198628137999549e-01 
-2.781414366269814309e-01 
-2.067638165200378353e-01 
2.008725935178290456e-01  
6.613116599435784337e-01  
-1.945427861361963551e-01 
-4.348632781660626279e-01 
-6.004290369120326432e-01 
1.978904897073903157e-01  
-4.807937124573413712e-01 
-6.711038757018172873e-01 
-6.996112958552771488e-01 
4.995225285125002301e-01  
-4.012724242118679285e-01 
-4.392655436028576332e-01 
-3.457760754373566670e-01 
-4.222778262263773286e-01 
-4.499783140111617286e-01 
-2.377662277109493516e-02 
5.052833881262586146e-01  
-5.196008244743097748e-01 
-6.297930953526815756e-01 
-6.426882075865592014e-01 
-2.108299430866509283e-01 
-5.464360049812171383e-01 
3.139956493055251485e-01  
-5.368639844749054646e-01 
-4.967606832258297800e-01 
-2.362482554654548039e-01 
-3.969306988015546267e-01 
1.964917319016876718e-01  
6.763613705959414801e-01  
-5.793079283810698143e-01 
-5.162097174988389270e-01 
-3.512713108348748392e-01 
-9.250957836837869763e-02 
5.613846429916407033e-01  
-4.640719145584171201e-01 
-2.846002217574437054e-01 
1.774128116136353128e-02  
6.047946847237994916e-01  
-3.318416278798963504e-01 
-1.048315643772639305e-01 
2.138150206245654772e-01  
1.904041472198514384e-01  
2.804368136366974795e-03  
5.654784048041960887e-01  
2.239191549874703924e-01  
5.307629896977346107e-01  
4.863073187132727071e-01  
6.406210596831556359e-01  
6.988374621893740368e-01  
</DataArray>
<DataArray type="Float64" Name="Temperature_@_t=1" Format="ascii">
9.233950362828664993e+00  
2.631268403290221158e+00  
9.233950362828124980e+00  
9.233950362827698655e+00  
4.093921866424750533e+00  
9.233950362827840763e+00  
-7.400699501628338339e-01 
5.232571872269360824e+00  
5.525803872685855822e+00  
9.233950362827840763e+00  
9.233950362827840763e+00  
5.786722275112794023e+00  
9.233950362827840763e+00  
6.050815428606966861e+00  
9.233950362827840763e+00  
6.102578479337836370e+00  
1.231193381710394164e+00  
9.233950362827840763e+00  
6.158488306010923452e+00  
9.233950362827840763e+00  
5.962838133619300152e+00  
-2.103934776667614415e+00 
1.231193381710394164e+00  
9.233950362827840763e+00  
5.610783289678465735e+00  
9.233950362827840763e+00  
6.113566037409924547e+00  
2.299356983028317813e+00  
1.231193381710394164e+00  
9.233950362827840763e+00  
5.928692128117745597e+00  
1.077294208996630687e+01  
1.158266382136801553e+00  
1.231193381710394164e+00  
1.231193381710374979e+01  
5.066969747935132773e-01  
1.231193381710394164e+00  
1.087385726846750345e+01  
1.231193381710374979e+01  
-1.270593331463800268e+00 
1.231193381710394164e+00  
1.128657545669821616e+01  
1.231193381710372137e+01  
-1.545639594311069231e+00 
1.231193381710394164e+00  
1.231193381710374979e+01  
9.532719170723396473e+00  
-2.127569670694938964e+00 
1.231193381710394164e+00  
6.649868501681368116e+00  
6.771563599407528500e+00  
-1.994901571304254162e+00 
1.231193381710394164e+00  
1.231193381710394164e+00  
-1.480482827517562328e+00 
1.231193381710394164e+00  
3.099643719516365081e-01  
1.231193381710394164e+00  
3.719899181341190797e-01  
1.231193381710394164e+00  
1.231193381710394164e+00  
-9.671044711656406889e-01 
1.899778630315495320e+00  
-2.155449149684841359e+00 
1.231193381710394164e+00  
1.231193381710394164e+00  
-1.245673767194858783e+00 
-6.248561263071934491e-01 
1.231193381710394164e+00  
-4.219665865495443313e-01 
1.231193381710394164e+00  
1.239206300387877491e+00  
5.194182219003408818e+00  
5.867848709273118857e+00  
1.231193381710394164e+00  
-9.632667867788395455e+00 
1.231193381710394164e+00  
1.231193381710394164e+00  
-8.906392011579995938e+00 
1.231193381710394164e+00  
1.231193381710394164e+00  
-1.683774522070947910e+00 
1.231193381710394164e+00  
1.994965963069773807e+00  
4.449986648812000567e+00  
1.231193381710394164e+00  
-1.526272056313928260e+00 
-7.720648305638803777e+00 
1.231193381710394164e+00  
-4.390773486110951751e+00 
1.231193381710394164e+00  
-2.435574815985205532e+00 
-6.983852464085771317e-01 
-1.078121600886291276e+00 
1.231193381710394164e+00  
-1.310474063747832929e+00 
1.231193381710394164e+00  
1.231193381710394164e+00  
-5.877840598457481747e+00 
2.088441585373374210e+00  
-7.496190972413053544e+00 
1.231193381710394164e+00  
-3.635162391807739368e+00 
-4.248835753334049059e+00 
1.231193381710394164e+00  
-6.537033559685035300e+00 
-4.564689085443546901e+00 
-4.475213269534037863e+00 
1.231193381710394164e+00  
-6.381028368172216858e+00 
-4.340355244188287998e+00 
-4.551893190090538610e+00 
-6.612619166780994817e+00 
1.231193381710394164e+00  
1.231193381710394164e+00  
1.231193381710394164e+00  
-6.622223682293160607e+00 
1.231193381710394164e+00  
1.855139678305789630e+00  
-2.605034746527508105e+00 
-3.594596741358998315e+00 
1.231193381710394164e+00  
-5.578438184159750790e+00 
1.231193381710394164e+00  
-6.986021506673715464e+00 
-7.790429910045844508e+00 
1.231193381710113499e+00  
4.185995043240552604e+00  
5.708763450661876959e+00  
1.787735174970009666e+00  
1.546332188902397320e-01  
-7.491492850836358741e+00 
1.231193381710394164e+00  
1.231193381710394164e+00  
-6.759151659524192723e+00 
4.449012860865707353e+00  
-7.144229858104388597e+00 
1.231193381710394164e+00  
1.231193381710394164e+00  
-6.211248072505512141e+00 
-7.259573272891138629e+00 
1.231193381710394164e+00  
1.231193381710394164e+00  
-7.279599616839654175e+00 
1.231193381710394164e+00  
-7.023217585356938741e+00 
1.231193381710394164e+00  
-7.150891842408277910e+00 
1.231193381710394164e+00  
-6.414829073576633789e+00 
-7.447510149872641705e+00 
1.231193381710394164e+00  
1.231193381710394164e+00  
-6.154271447159004538e+00 
-7.548409287519326938e+00 
1.231193381710394164e+00  
-7.549284594408405269e+00 
1.231193381710394164e+00  
1.231193381710394164e+00  
-7.446080404354347593e+00 
1.231193381710394164e+00  
-6.584786760294143448e+00 
1.231193381710394164e+00  
-7.344403850367918096e+00 
-7.915339953479971769e+00 
1.231193381710394164e+00  
-7.484415179112211547e+00 
1.231193381710113499e+00  
1.231193381710113499e+00  
-6.616862811255160182e+00 
-7.399025438992111958e+00 
1.231193381710394164e+00  
-7.752304812193088424e+00 
1.231193381710394164e+00  
-7.370516991196247147e+00 
1.231193381710394164e+00  
1.231193381710394164e+00  
-6.659271025189980264e+00 
1.231193381710394164e+00  
-7.097943327470566999e+00 
-8.254104125947883119e+00 
-1.350629243182908112e-01 
4.940050419055012298e+00  
5.205281503977005286e+00  
8.359845758375513469e+00  
8.661982579874546673e+00  
9.238300860290195260e+00  
8.586284106939160665e+00  
3.888794628203413595e+00  
1.080844978119964139e+01  
1.234889226143275209e+01  
1.154582878130699441e+01  
8.987056073047455129e+00  
8.179255513308646641e+00  
1.106743804203986770e+01  
1.465358794520722086e+01  
1.448149375714419307e+01  
1.178585487476158278e+01  
9.035509535851218743e+00  
8.556599555032136095e+00  
9.565745869742670493e+00  
1.409736008472137314e+01  
1.510653017545996590e+01  
1.374999355655947397e+01  
7.304794098825880155e+00  
1.167856926976187992e+01  
1.310931444312925009e+01  
1.273960680576666959e+01  
5.391588072792529829e+00  
8.777292941948019234e+00  
9.908348269149712451e+00  
1.053297081631325227e+01  
3.882828710004531558e+00  
6.155643753044500954e+00  
6.542954203660997337e+00  
6.756753137326512615e+00  
2.792282359734343800e+00  
4.053416047394165389e+00  
3.427638582083346819e+00  
2.997673614580378398e+00  
2.172783287622081616e+00  
2.157840710981247412e+00  
2.345449239848591105e+00  
5.991910136275464538e-01  
-1.695747720220595056e-01 
2.713917467751514323e-01  
1.924485838063361598e+00  
1.240597021176682802e+00  
-1.801723377127302683e+00 
-3.522833925914142128e+00 
-2.252612239568776431e+00 
7.446683248682006706e-02  
1.354581927614930237e+00  
5.317306210584462178e+00  
5.869835717487148941e+00  
1.796826430208938064e+00  
6.157839416781882846e-01  
-3.265306249120101256e+00 
-6.136648128760270993e+00 
-5.824490386090133143e+00 
-2.947394073423879490e+00 
6.652817011988076956e-01  
3.458400029427934896e+00  
4.589552360641903306e+00  
5.035430457003741367e+00  
5.847544725644553409e+00  
5.273462166867801670e+00  
3.492384697892134682e+00  
-5.353609401394763267e+00 
1.739221722165098072e+00  
7.944923253165825372e-02  
-4.090611202591105666e+00 
-7.627309532320282415e+00 
-8.459031330777918356e+00 
-6.589741557532079241e+00 
-3.080790154683143101e+00 
8.634897261146932124e-01  
3.841258451410226371e+00  
5.004617318660990577e+00  
3.401612261815984084e+00  
1.099427198785235760e+00  
-1.437635740539803919e+00 
1.976041327970989414e+00  
-3.184345351208051511e+00 
3.182683121522558167e-01  
1.966127282993355152e+00  
-1.830487367374189489e-01 
-4.622929450804520002e+00 
-8.489812753601199802e+00 
-9.807648095563138213e+00 
-8.952116548052913458e+00 
-6.622637945866244991e+00 
2.025096581597580325e+00  
-3.481905594140528137e+00 
-2.543246266728829141e-01 
6.833444751698038999e-01  
-1.201208939814875976e+00 
-2.757369903791470733e+00 
-3.927925395873501202e+00 
-3.654423636924548191e+00 
-4.427383813093626941e+00 
2.708198403964274803e+00  
2.833276076410811584e+00  
-1.808104275569633046e-01 
5.155413155375470069e+00  
7.500578269313706414e+00  
2.754514196982285057e-01  
-2.356110885551430556e+00 
7.510130233399422650e+00  
5.338461218783635331e+00  
-4.844772718372041709e+00 
-9.164224074929506969e+00 
-1.047831875015089054e+01 
-1.004252388510587934e+01 
-8.556454790309089731e+00 
-6.518436888166320387e+00 
-1.854779859416510135e+00 
-4.274046087544036254e+00 
-3.218570569794735547e+00 
-3.993884735299729982e+00 
-4.411700454798278770e+00 
-4.616888106458816310e+00 
-4.645295929009250813e+00 
4.610495649899633008e+00  
8.830412632320587818e-01  
-4.052899737367681610e+00 
7.350887880362904525e+00  
9.200029215350980394e+00  
-1.274739614674459176e+00 
-2.274750746569438320e+00 
4.223542008505432932e+00  
8.659785362989822488e+00  
-8.108401318959238324e+00 
-1.016335396567814087e+01 
-1.078591905239795778e+01 
-1.053033743737722716e+01 
-9.389923743525798727e+00 
-7.878535192742845084e+00 
-6.338080383855810851e+00 
-4.839395417722187176e+00 
-5.028329521783120981e+00 
-4.961439857609036608e+00 
-4.879401309087256777e+00 
-4.771368713395247596e+00 
-4.623157503940376500e+00 
3.663147352991074968e+00  
-2.008959204135976506e+00 
-6.588305138929229088e+00 
7.535773649147074593e+00  
8.867644889952856602e+00  
-2.198304064707173211e+00 
2.227886261087334674e+00  
7.296907875112907504e+00  
-9.385105257183226968e+00 
-1.056241306163423133e+01 
-1.060996697321724014e+01 
-9.769768545596775766e+00 
-8.464241485561728950e+00 
-7.132104927988734744e+00 
-6.014843962275904232e+00 
-5.584222023772326793e+00 
-5.226183466882957873e+00 
-4.934394060417105266e+00 
-4.598790820567614901e+00 
-4.159046087733202057e+00 
4.569146360971700460e+00  
7.896592802060524718e-01  
-3.920597267619484683e+00 
-7.368242353604387063e+00 
6.734890632779865882e+00  
7.238092911331762025e+00  
1.565499360314817068e-01  
4.832520413546149030e+00  
-2.560345568208433065e+00 
-9.300190582207505940e+00 
-9.961224170143452739e+00 
-7.479927654919492852e+00 
-9.654199182115178246e+00 
-8.722993551928936995e+00 
-6.471981548607232071e+00 
-6.201384736170041379e-01 
-5.711198417761522705e+00 
-5.120428836627070268e+00 
-2.287964815186171563e+00 
-4.464218737662520198e+00 
-3.589352889709743977e+00 
3.247211286776945371e+00  
-6.015971247711604519e-01 
-4.156888279925738061e+00 
-6.727727569447552014e+00 
5.389154661384878864e+00  
5.199833307236474411e+00  
2.311809838537811856e+00  
9.742193618745886852e-02  
-3.798430721330149140e+00 
-8.168423531351322708e+00 
-8.575390136977716793e+00 
-7.019429977175093427e+00 
-7.675645170384996163e+00 
-8.310911632195768561e+00 
-6.196543562316207954e+00 
-2.801358051643518365e+00 
2.714700844291144222e+00  
5.682720090602629170e+00  
3.977465192582712916e+00  
-5.269729531777272769e+00 
-4.167823740649680531e+00 
1.319279924869135812e+00  
-1.018714707249785079e+00 
-2.768051917318757660e+00 
2.585042878923218268e+00  
-4.223344023347408438e-01 
-3.093616440238918130e+00 
-5.064351375610328887e+00 
4.215715875043088090e+00  
3.265750386922832149e+00  
1.361191383822614398e+00  
-2.741371169770275174e+00 
-5.797575685655374400e+00 
-6.671551884433085888e+00 
-6.521286941449432106e+00 
-6.730406560558037654e+00 
-5.242380374933134135e+00 
-5.997959779321604401e-03 
4.739216841591030516e+00  
5.636424814717997833e+00  
4.606400270049192613e+00  
-3.590450755186395781e+00 
-1.643133295103098135e+00 
2.637571185216899039e+00  
4.468640098384639714e-01  
2.503030192878696880e+00  
5.145263806743116675e-01  
-1.312372395923006252e+00 
-2.632383232215602220e+00 
-2.655773599627764270e+00 
3.185728433733032716e+00  
1.654907564956005217e+00  
-8.047182645745749596e-01 
-4.026813363845931804e+00 
-3.793101328448301501e+00 
-4.518557686030192144e+00 
-4.990493816253547266e+00 
-2.931680430220865219e+00 
-2.118948626830672310e+00 
3.221997424498823648e+00  
5.586132547963899242e+00  
5.268989124870529395e+00  
-1.968198114379333674e-01 
1.990833665537621755e+00  
3.963736934980488513e+00  
2.658792409477115370e+00  
1.688377320594355524e+00  
6.791513033901708241e-01  
9.025369397667759586e-02  
-3.181634247754914213e-01 
2.507743097315085379e+00  
3.502781117863094096e-01  
-3.394534402928996997e+00 
-1.279940733100488615e+00 
-2.198983348629042212e+00 
1.619198829600918543e-01  
2.026762183992133259e+00  
-2.765991989516976446e+00 
1.540253395116025104e+00  
4.926131235839392275e+00  
5.432434256586077481e+00  
3.443722148407402983e+00  
4.782856120414948009e+00  
1.520340101482560158e+00  
2.793254070819983781e+00  
2.652619027862584744e+00  
2.321134870351471591e+00  
1.998673811888465934e+00  
1.624918803004106849e+00  
-1.179285059430739580e+00 
-4.426095812124032136e+00 
1.392569192965481761e+00  
3.098281573923117094e+00  
4.305735981272420076e+00  
-1.082489392817336693e+00 
3.668351436677596666e+00  
4.950963155418179440e+00  
5.073469833273264840e+00  
-3.219276041726402582e+00 
2.915211532922342030e+00  
3.227795568210723332e+00  
2.614347493943427025e+00  
3.149671733073944324e+00  
3.335849588197561388e+00  
4.417861354318119993e-01  
-3.286927415441098788e+00 
3.782496200020204924e+00  
4.624657760031851694e+00  
4.774691589540680070e+00  
1.816136943913733148e+00  
4.145977447203392785e+00  
-1.888147273611849641e+00 
3.983891958352046458e+00  
3.764435205132656392e+00  
1.962344965113288708e+00  
3.091034516161272450e+00  
-1.064073224482697810e+00 
-4.483349138346156337e+00 
4.353603429641054845e+00  
3.960983436278780800e+00  
2.824214233059620938e+00  
1.000704819032563364e+00  
-3.647747372728545656e+00 
3.602962391884716453e+00  
2.367563961104480086e+00  
2.308759258692703042e-01  
-3.956408765895631063e+00 
2.707495077046132792e+00  
1.111656219856030248e+00  
-1.157709724843968502e+00 
-9.752340500088507724e-01 
3.617929093323084544e-01  
-3.662244813819256706e+00 
-1.213354787262645118e+00 
-3.414135344520730087e+00 
-3.086515658511430615e+00 
-4.195790809655193243e+00 
-4.612501276536434602e+00 
</DataArray>
<DataArray type="Float64" Name="Temperature_@_t=2" Format="ascii">
-3.188169928881592341e+00 
-2.936854002836355448e-01 
-3.188169928882416571e+00 
-3.188169928882558679e+00 
-9.454939139170619455e-01 
-3.188169928882473414e+00 
1.392603757286124733e+00  
-1.806629626366614616e+00 
-1.558568537260811127e+00 
-3.188169928882473414e+00 
-3.188169928882473414e+00 
-1.929767493785732313e+00 
-3.188169928882473414e+00 
-1.787651876006634666e+00 
-3.188169928882473414e+00 
-1.718487450595574728e+00 
-4.250893238509974026e-01 
-3.188169928882473414e+00 
-1.669431215208192043e+00 
-3.188169928882473414e+00 
-1.490776447475354871e+00 
1.237753166917229919e+00  
-4.250893238509974026e-01 
-3.188169928882473414e+00 
-1.243201571707459152e+00 
-3.188169928882473414e+00 
-1.419248216326650436e+00 
-9.833503414115796204e-01 
-4.250893238509974026e-01 
-3.188169928882473414e+00 
-1.240769040668197931e+00 
-3.719531583695982135e+00 
-1.095128570239722876e-01 
-4.250893238509974026e-01 
-4.250893238510030869e+00 
3.075726423756464101e-01  
-4.250893238509974026e-01 
-3.531016311354903792e+00 
-4.250893238510030869e+00 
9.746065699884240985e-01  
-4.250893238509974026e-01 
-3.187726765592259426e+00 
-4.250893238510087713e+00 
8.119301411243213806e-01  
-4.250893238509974026e-01 
-4.250893238510030869e+00 
-1.788937333952873132e+00 
7.932765754134720737e-01  
-4.250893238509974026e-01 
-8.000754490951464959e-01 
-2.337991281180251235e+00 
4.351940404932150841e-01  
-4.250893238509974026e-01 
-4.250893238509974026e-01 
8.819376421644165021e-01  
-4.250893238509974026e-01 
-7.287600759350709723e-01 
-4.250893238509974026e-01 
-7.350416926677922902e-01 
-4.250893238509974026e-01 
-4.250893238509974026e-01 
3.985133259097040082e-02  
-1.574174781418648195e+00 
3.520898885686989388e-01  
-4.250893238509974026e-01 
-4.250893238509974026e-01 
-1.291446934431235150e-01 
-5.579542146954850068e-01 
-4.250893238509974026e-01 
-5.321485075525060893e-01 
-4.250893238509974026e-01 
-1.348650762164297134e+00 
-3.202156307001246205e+00 
-3.125129877885228780e+00 
-4.250893238509974026e-01 
5.089655678265668115e+00  
-4.250893238509974026e-01 
-4.250893238509974026e-01 
4.615778277618261427e+00  
-4.250893238509974026e-01 
-4.250893238509974026e-01 
4.400523791343857738e-02  
-4.250893238509974026e-01 
-3.268213670494617418e-01 
-1.899020933883235784e+00 
-4.250893238509974026e-01 
1.648600297436928486e-01  