<?xml version="1.0" encoding="UTF-8"?>
<VTKFile type="UnstructuredGrid" version="0.1" byte_order="LittleEndian">
<UnstructuredGrid>
<Piece NumberOfPoints="504" NumberOfCells="911">
<PointData>
<DataArray type="Float64" Name="Temperature_@_t=0" Format="ascii">
1.514611297449245626e+02
2.736499121826860801e+02
1.514611297449243636e+02
1.514611297449247331e+02
2.739080707617388271e+02
1.514611297449248184e+02
2.732033698648511404e+02
8.582797352212416797e+01
2.741361579041855521e+02
1.514611297449248184e+02
1.514611297449248184e+02
2.740765119310570981e+02
1.514611297449248184e+02
2.741716734831992994e+02
1.514611297449248184e+02
2.741958773710654782e+02
2.019481729932332925e+01
1.514611297449248184e+02
2.742023742314920582e+02
1.514611297449248184e+02
2.741786558066775683e+02
2.729266901089632711e+02
2.019481729932332925e+01
1.514611297449248184e+02
2.741440169850914117e+02
1.514611297449248184e+02
2.741874179547899644e+02
2.735254652610717585e+02
2.019481729932332925e+01
1.514611297449248184e+02
2.742047321450191930e+02
1.767046513690791585e+02
2.733764069232502720e+02
2.019481729932332925e+01
2.019481729932333849e+02
2.732847122108950089e+02
2.019481729932332925e+01
2.748877897214779296e+02
2.019481729932333849e+02
2.730141971041954321e+02
2.019481729932332925e+01
2.749864404897569443e+02
2.019481729932327596e+02
2.729504844402671893e+02
2.019481729932332925e+01
2.019481729932333849e+02
2.747641899273061767e+02
2.728443156064318487e+02
2.019481729932332925e+01
2.743288602111365435e+02
1.110714951462782949e+02
2.728401155912048353e+02
2.019481729932332925e+01
2.019481729932332925e+01
2.729620340311063273e+02
2.019481729932332925e+01
2.731696318845675933e+02
2.019481729932332925e+01
2.731774618489461659e+02
2.019481729932332925e+01
2.019481729932332925e+01
2.730084003519887688e+02
2.733835855640650152e+02
2.728057808868761072e+02
2.019481729932332925e+01
2.019481729932332925e+01
2.729317308179686279e+02
2.730126349508544195e+02
2.019481729932332925e+01
2.730539220463580250e+02
2.019481729932332925e+01
2.732886985551081693e+02
2.738731081173927464e+02
2.739931663703681011e+02
2.019481729932332925e+01
2.719135653266175723e+02
2.019481729932332925e+01
2.019481729932332925e+01
2.720375113772592499e+02
2.019481729932332925e+01
2.019481729932332925e+01
2.728668276369211299e+02
2.019481729932332925e+01
2.734790948117779408e+02
2.738175351036027791e+02
2.019481729932332925e+01
2.729027522625191864e+02
2.721208569105116908e+02
2.019481729932332925e+01
2.725510053850540544e+02
2.019481729932332925e+01
2.727975561676687448e+02
2.730782078329613114e+02
2.729862721282058260e+02
2.019481729932332925e+01
2.729722002841137396e+02
2.019481729932332925e+01
2.019481729932332925e+01
2.722896325565358211e+02
2.734233567395249906e+02
2.723061477115098796e+02
2.019481729932332925e+01
2.725776675599665850e+02
2.724423865895867607e+02
2.019481729932332925e+01
2.722896582739433029e+02
2.723500995201524120e+02
2.723802114987034884e+02
2.019481729932332925e+01
2.723268621022905336e+02
2.724261579953413275e+02
2.723653178729855995e+02
2.723370408185777478e+02
2.019481729932332925e+01
2.019481729932332925e+01
2.019481729932332925e+01
2.723324381689755000e+02
2.019481729932332925e+01
2.733266385228548074e+02
2.727680824756991456e+02
2.725891068880388843e+02
2.019481729932332925e+01
2.723574348185491090e+02
2.019481729932332925e+01
2.722199361463962646e+02
2.722527957979257280e+02
2.019481729932326886e+01
2.737125807115383509e+02
2.739635995236544659e+02
2.734435494278288843e+02
2.732041452997451074e+02
2.722873038831975236e+02
2.019481729932332925e+01
2.019481729932332925e+01
2.722356327090208765e+02
2.738090724455993836e+02
2.722243171262638270e+02
2.019481729932332925e+01
2.019481729932332925e+01
2.722787917870019214e+02
2.722668219960145279e+02
2.019481729932332925e+01
2.019481729932332925e+01
2.722205210244898694e+02
2.019481729932332925e+01
2.722410120281389823e+02
2.019481729932332925e+01
2.722131000901025004e+02
2.019481729932332925e+01
2.722885849344073108e+02
2.721959340637613991e+02
2.019481729932332925e+01
2.019481729932332925e+01
2.722894558432370218e+02
2.721857579895973345e+02
2.019481729932332925e+01
2.722810021598020853e+02
2.019481729932332925e+01
2.019481729932332925e+01
2.721869932100120764e+02
2.019481729932332925e+01
2.722243710866157471e+02
2.019481729932332925e+01
2.721914755799892873e+02
2.722614159265316403e+02
2.019481729932332925e+01
2.721983838873127866e+02
2.019481729932326886e+01
2.019481729932326886e+01
2.722140549480351979e+02
2.721922229700932689e+02
2.019481729932332925e+01
2.722436095866286223e+02
2.019481729932332925e+01
2.722069233140105666e+02
2.019481729932332925e+01
2.019481729932332925e+01
2.722005548399969825e+02
2.019481729932332925e+01
2.721845206506404224e+02
2.722659010763397873e+02
2.731733131828479486e+02
2.739320097644685461e+02
2.739377126206942421e+02
2.744537648643906209e+02
2.744543363343531723e+02
2.745898220752919769e+02
2.745108097818227861e+02
2.737183817722957428e+02
2.747490599013629549e+02
2.750103116944839030e+02
2.749276922878347591e+02
2.745747060226297549e+02
2.744685633250925889e+02
2.748018599301097993e+02
2.753580592666280040e+02
2.753662570720032363e+02
2.749897590352263705e+02
2.746037880765875343e+02
2.745630183958017483e+02
2.746166938341163473e+02
2.753229113498053948e+02
2.755028929156463846e+02
2.753147989778784677e+02
2.743087131375747276e+02
2.750140151761080460e+02
2.752730475473693446e+02
2.752256459835227247e+02
2.740245706196276387e+02
2.745988133997436194e+02
2.748336544569733064e+02
2.749363776433427802e+02
2.737761491259385593e+02
2.741882999187340602e+02
2.743292247074130046e+02
2.743781013979254908e+02
2.735807271155208014e+02
2.738367204488307038e+02
2.738383192091453111e+02
2.737882249295703332e+02
2.736228395753366840e+02
2.734519228492679872e+02
2.735505935589272326e+02
2.733843575675352895e+02
2.732927341721464813e+02
2.732957512262740352e+02
2.733885258866436061e+02
2.733492194476482950e+02
2.729896377440922492e+02
2.727704269536289416e+02
2.729105965060006156e+02
2.731730163148362180e+02
2.733055007542576504e+02
2.738831232723381959e+02
2.739777795696988392e+02
2.733548179254168531e+02
2.732268513172484177e+02
2.727271941566539226e+02
2.723408359816605184e+02
2.723666794668770308e+02
2.727343937733495522e+02
2.732093434356888224e+02
2.735791256490873593e+02
2.737452791299241426e+02
2.738242669430953242e+02
2.739601356331821194e+02
2.739135657003502047e+02
2.736838500196671475e+02
2.723496985264870887e+02
2.733559682681595291e+02
2.731414722408220541e+02
2.725731328689884094e+02
2.720706413604937097e+02
2.719326673112466892e+02
2.721790559561917462e+02
2.726678001728511163e+02
2.732265039843235286e+02
2.736543705350555342e+02
2.738417236568400313e+02
2.736503792812257529e+02
2.733362688341322837e+02
2.729566615770420981e+02
2.734237481536306404e+02
2.726636031926368560e+02
2.731384278944215680e+02
2.733566108870379594e+02
2.731287275156357168e+02
2.724949268228405685e+02
2.719123497251349022e+02
2.716828227384148136e+02
2.717800580342423586e+02
2.721152316581753325e+02
2.734200056667894501e+02
2.725866103403092779e+02
2.730748253302709827e+02
2.732445484774938222e+02
2.729756372031513934e+02
2.727300493320510100e+02
2.725144223288687044e+02
2.725724600424027813e+02
2.723977299541724619e+02
2.735448063602555067e+02
2.735807691079168649e+02
2.731764459877491618e+02
2.738904068595680315e+02
2.742039431181422628e+02
2.731248925017492866e+02
2.728064592799067896e+02
2.741707128794072901e+02
2.738384343636294034e+02
2.724997347289865388e+02
2.718235796835867291e+02
2.715601018066190591e+02
2.715725694977284093e+02
2.717742078499530294e+02
2.720890373268168219e+02
2.728461330300401073e+02
2.724524237718738959e+02
2.726344831755674818e+02
2.724984796319687348e+02
2.724089422274403773e+02
2.723503717615758433e+02
2.723342543043463024e+02
2.738641677597986472e+02
2.733715627425618777e+02
2.726686599398100839e+02
2.742402210314654667e+02
2.744610755750478575e+02
2.729478841307346215e+02
2.728239965430675511e+02
2.736974011301842324e+02
2.743437994058940035e+02
2.720444224666243827e+02
2.716857661785130063e+02
2.715278757432320162e+02
2.714917307412700325e+02
2.716156034788716056e+02
2.718322634957714286e+02
2.720827244905315183e+02
2.723452239551193657e+02
2.722928170492984350e+02
2.722872672298101975e+02
2.722909244960209207e+02
2.723120073498313900e+02
2.723539149718014869e+02
2.737902828047856474e+02
2.730068389285564763e+02
2.723244845834859689e+02
2.742958730170946637e+02
2.744349620826983482e+02
2.728409635746940012e+02
2.734387404983654051e+02
2.741704872959825252e+02
2.718554780630035452e+02
2.716044699153708848e+02
2.715150950639130087e+02
2.715710359495511739e+02
2.717272451877127537e+02
2.719214156407774681e+02
2.721060668177628941e+02
2.721656456802298294e+02
2.722286556254957191e+02
2.722935020594159710e+02
2.723753051870615423e+02
2.724742173652685437e+02
2.739239748743758582e+02
2.734161930505516125e+02
2.727422201758829488e+02
2.722017684783255618e+02
2.741911008499507147e+02
2.742121886112010429e+02
2.731526953554335364e+02
2.738322651552358593e+02
2.728033608566756811e+02
2.718499918093772862e+02
2.716715332028298917e+02
2.718735970140609766e+02
2.716410296655029697e+02
2.717202653283621316e+02
2.720225233425899205e+02
2.730496549103647226e+02
2.721594291827286725e+02
2.722822814148321982e+02
2.728195938109332701e+02
2.724207750058993724e+02
2.725911205659169809e+02
2.737417456245305516e+02
2.732115703646573479e+02
2.726849726086580290e+02
2.722669873672979861e+02
2.739957937423317276e+02
2.739182921454195139e+02
2.734760748921177083e+02
2.731613216542793339e+02
2.726225215553032513e+02
2.719921936314745494e+02
2.718651837468003691e+02
2.719683685478681241e+02
2.718955671933985627e+02
2.718450787945491243e+02
2.721094566325905930e+02
2.727551425581178819e+02
2.735031772983647897e+02
2.739456773606299294e+02
2.737439368878798405e+02
2.722832349475222031e+02
2.724897632557567704e+02
2.733714514501240842e+02
2.730194077717108030e+02
2.727353484085094237e+02
2.736271163003807487e+02
2.732032008156490974e+02
2.728013121860536216e+02
2.724811209571711288e+02
2.738069934076530103e+02
2.736294085608022328e+02
2.733401556614934975e+02
2.727633474512789462e+02
2.723283373884654566e+02
2.721486134864543942e+02
2.720934150275973593e+02
2.720979986769738161e+02
2.723148747655002353e+02
2.731227658600936934e+02
2.737958925332242188e+02
2.739517942415754987e+02
2.738237961468415733e+02
2.725973349733835107e+02
2.729138050995723574e+02
2.735536155332882231e+02
2.732348824285143110e+02
2.735790661237043651e+02
2.732955254523734538e+02
2.730218889713923431e+02
2.728131706933953069e+02
2.727878592546126697e+02
2.736258843137388794e+02
2.733793837867265779e+02
2.730247826423051833e+02
2.725832130247896998e+02
2.726038622856574989e+02
2.724735703114379817e+02
2.723790369447311264e+02
2.727076218982242040e+02
2.728356382743703534e+02
2.735727203108055505e+02
2.739295038995787763e+02
2.739014331242515254e+02
2.731271845428885285e+02
2.734499949943034949e+02
2.737282643099115376e+02
2.735625952532921019e+02
2.734226352639315678e+02
2.732723354940746958e+02
2.731770601891861361e+02
2.731095926702745942e+02
2.735054437946386656e+02
2.731792880645344894e+02
2.726633173509030712e+02
2.729641996442601908e+02
2.728235420346366595e+02
2.731737924065374159e+02
2.734426252830069757e+02
2.727413562540612588e+02
2.733316906931316339e+02
2.738214438124521735e+02
2.739059088675996918e+02
2.736435301505101165e+02
2.738264061057147387e+02
2.733608187354107031e+02
2.735470862694809853e+02
2.735263426991300548e+02
2.734766330827332013e+02
2.734281466285084434e+02
2.733577604702001054e+02
2.729574788212989347e+02
2.725208287375586451e+02
2.733445443997918005e+02
2.735848708599299357e+02
2.737504482396207663e+02
2.729663247262903951e+02
2.736320774123737465e+02
2.738215386096021575e+02
2.738497032304742334e+02
2.726900915130312342e+02
2.735512813028371966e+02
2.735892833329402833e+02
2.734960345764368981e+02
2.735724131961005128e+02
2.736000147697394596e+02
2.731753376139063221e+02
2.726669821305217170e+02
2.736696197683821197e+02
2.737798462303678662e+02
2.737928655373769971e+02
2.733646778199725418e+02
2.736967960327190212e+02
2.728416748019060947e+02
2.736869184494231604e+02
2.736469152237355615e+02
2.733874165937907037e+02
2.735472523764815378e+02
2.729609745817284079e+02
2.725053036558429653e+02
2.737295034437355525e+02
2.736664869109357596e+02
2.735028419841983123e+02
2.732465602569139946e+02
2.726441439087005847e+02
2.736144154825572627e+02
2.734355798256074195e+02
2.731361667798280450e+02
2.725716777086420279e+02
2.734833837841370041e+02
2.732583005871096589e+02
2.729413202071847309e+02
2.729656501078807196e+02
2.731507333898093179e+02
2.726120684155599747e+02
2.729308219565594413e+02
2.726674497800190125e+02
2.726687621611861232e+02
2.725515490310431233e+02
2.725079856505989255e+02
</DataArray>
<DataArray type="Float64" Name="Temperature_@_t=1" Format="ascii">
1.407660496371713350e+02
1.320096129334191062e+02
1.407660496371718750e+02
1.407660496371723013e+02
1.429656586155566060e+02
1.407660496371721592e+02
1.100552631325355719e+02
7.976742812773062496e+01
1.536324000507862024e+02
1.407660496371721592e+02
1.407660496371721592e+02
1.506639109808070884e+02
1.407660496371721592e+02
1.572091591599274238e+02
1.407660496371721592e+02
1.591258916371488681e+02
1.876880661828960584e+01
1.407660496371721592e+02
1.607978557506560264e+02
1.407660496371721592e+02
1.612153965928610546e+02
8.419032529965281242e+01
1.876880661828960584e+01
1.407660496371721592e+02
1.607031190604209598e+02
1.407660496371721592e+02
1.655745545149933946e+02
1.115441994106817560e+02
1.876880661828960584e+01
1.407660496371721592e+02
1.668497090666749045e+02
1.642270579100336647e+02
1.134242376348197467e+02
1.876880661828960584e+01
1.876880661828962786e+02
1.202579028664500811e+02
1.876880661828960584e+01
1.983360729418299684e+02
1.876880661828962786e+02
1.150233325915516076e+02
1.876880661828960584e+01
2.109039681521356613e+02
1.876880661828963071e+02
1.198352060804903658e+02
1.876880661828960584e+01
1.876880661828962786e+02
2.172569366781192173e+02
1.187850740439765929e+02
1.876880661828960584e+01
2.043062617273147907e+02
1.032284364005924715e+02
1.227275851055761677e+02
1.876880661828960584e+01
1.876880661828960584e+01
1.595506560056970500e+02
1.876880661828960584e+01
1.253773987846915361e+02
1.876880661828960584e+01
1.259328747178194163e+02
1.876880661828960584e+01
1.876880661828960584e+01
1.138356594823152363e+02
1.411387325255261089e+02
1.219364851942997205e+02
1.876880661828960584e+01
1.876880661828960584e+01
1.353489340339224896e+02
1.263128656357882562e+02
1.876880661828960584e+01
1.212718945282629193e+02
1.876880661828960584e+01
1.347675838346273451e+02
1.847330195719013375e+02
2.193952640239953382e+02
1.876880661828960584e+01
3.905755235744203446e+01
1.876880661828960584e+01
1.876880661828960584e+01
4.259425559637333691e+01
1.876880661828960584e+01
1.876880661828960584e+01
1.283498181204617197e+02
1.876880661828960584e+01
2.590178533828183163e+02
2.432815121454624148e+02
1.876880661828960584e+01
1.297769827098418318e+02
4.867714831904572748e+01
1.876880661828960584e+01
6.560734003192767716e+01
1.876880661828960584e+01
2.734192713642548256e+02
2.688607499447149394e+02
1.284585708256903160e+02
1.876880661828960584e+01
1.110147710846690075e+02
1.876880661828960584e+01
1.876880661828960584e+01
5.902355978715569051e+01
1.182981352510043394e+02
5.173870629941646371e+01
1.876880661828960584e+01
2.759561870808232129e+02
2.770986787624363501e+02
1.876880661828960584e+01
5.839115034490383493e+01
2.776474766762711965e+02
2.774878714339402563e+02
1.876880661828960584e+01
6.129399346192036546e+01
2.771867910146267491e+02
2.775716041958434630e+02
6.201728041771355038e+01
1.876880661828960584e+01
1.876880661828960584e+01
1.876880661828960584e+01
6.761216274476737453e+01
1.876880661828960584e+01
1.413712671909779885e+02
2.735620317997883717e+02
2.757010359775192683e+02
1.876880661828960584e+01
7.235694138395555797e+01
1.876880661828960584e+01
6.477372959835577149e+01
5.859682513969443107e+01
1.876880661828988650e+01
1.699842349787295177e+02
2.196128762682399724e+02
2.591848332069131970e+02
2.656701044129314937e+02
6.015274619652480226e+01
1.876880661828960584e+01
1.876880661828960584e+01
6.663086332473595519e+01
2.415233607244967686e+02
6.436542285757099080e+01
1.876880661828960584e+01
1.876880661828960584e+01
7.100820401484233457e+01
6.286502279884472699e+01
1.876880661828960584e+01
1.876880661828960584e+01
6.481202327741279134e+01
1.876880661828960584e+01
6.479047285769965470e+01
1.876880661828960584e+01
6.707791628928127636e+01
1.876880661828960584e+01
6.972746090481953729e+01
6.515156146504972412e+01
1.876880661828960584e+01
1.876880661828960584e+01
7.196620749616728574e+01
6.457002788685659311e+01
1.876880661828960584e+01
6.105183664131027399e+01
1.876880661828960584e+01
1.876880661828960584e+01
6.549996705423694721e+01
1.876880661828960584e+01
6.887508573049301219e+01
1.876880661828960584e+01
6.620012981366915028e+01
5.847513614402576820e+01
1.876880661828960584e+01
6.465628036910858611e+01
1.876880661828988650e+01
1.876880661828988650e+01
6.914044983162574454e+01
6.500927126094410369e+01
1.876880661828960584e+01
6.023557406151599025e+01
1.876880661828960584e+01
6.483697406973087141e+01
1.876880661828960584e+01
1.876880661828960584e+01
6.952865227008898330e+01
1.876880661828960584e+01
6.666385720081527211e+01
5.671879520295685495e+01
1.019270923345223139e+02
1.369665784366682999e+02
1.289863965556634753e+02
1.628774321186746192e+02
1.560384338950959773e+02
1.708304934401586763e+02
1.709075566156978709e+02
1.176032509277623745e+02
1.625006807483907210e+02
1.808387934478949433e+02
1.852330994623596325e+02
1.754217900526031144e+02
1.739687920270171162e+02
1.670527340014970719e+02
1.958761400607770895e+02
2.034331632622874508e+02
1.938606164480444249e+02
1.820120451513275270e+02
1.840278629788801368e+02
1.696917474887750643e+02
2.061185478333628680e+02
2.186868518480958699e+02
2.140393042591634867e+02
1.718878957300027821e+02
2.126102653229698944e+02
2.292097554846083654e+02
2.265072856361091453e+02
1.770394705972003067e+02
2.168911119307224169e+02
2.348660300735018041e+02
2.326118999961827001e+02
1.816425306408202971e+02
2.204311662564659002e+02
2.400429367481232248e+02
2.297090032721723674e+02
1.849786069849626813e+02
2.224776758221041177e+02
2.473634761428014031e+02
2.388836894602596601e+02
2.028903684385329598e+02
1.868535392426270505e+02
2.295902961392868633e+02
2.547643178422463563e+02
2.549655618092491522e+02
2.278462489815877063e+02
1.909270485717436259e+02
2.339950037853190565e+02
2.607365299402774781e+02
2.682263481549720723e+02
2.574577727963410325e+02
2.303389168206495583e+02
1.979966755948742048e+02
1.874471097458549025e+02
2.035199379586961754e+02
1.928211416400783378e+02
2.368459158185301021e+02
2.638352755888353158e+02
2.746485421000484166e+02
2.734902787231302455e+02
2.625433548395645857e+02
2.424259230493522068e+02
2.043649694576077422e+02
1.888738843922785406e+02
1.866787248343029830e+02
2.096669817666941640e+02
2.336298557733641132e+02
2.508731382385786617e+02
5.956759895499175173e+01
1.958233250884390770e+02
2.400890740551977558e+02
2.655983764356877828e+02
2.772941747550792684e+02
2.798168718814994236e+02
2.761953974883063552e+02
2.673743936576519218e+02
2.529670813491638910e+02
2.364356107906228601e+02
2.319775424909049093e+02
2.506869271686286993e+02
2.626796374052936471e+02
2.709457957119438447e+02
2.005857969507010239e+02
7.166187431863130541e+01
9.058362434569141897e+01
1.038828945547388969e+02
2.419215317745895675e+02
2.667976047658540892e+02
2.786537165034147279e+02
2.820490849952166172e+02
2.812484947741886003e+02
2.777332143252369292e+02
2.554545681748416257e+02
2.717617607497823542e+02
2.634175748659057490e+02
2.631242872426846588e+02
2.699459194233726294e+02
2.740110257127493014e+02
2.764513273649514531e+02
2.759695668425733288e+02
2.773774742814458136e+02
1.664228234351829485e+02
2.065145137185603232e+02
2.449648980246286669e+02
1.679763315525565588e+02
1.713359457910347317e+02
9.292082147389477598e+01
8.061812624643884817e+01
1.511407896511763909e+02
1.256239299552494515e+02
2.675723169271552706e+02
2.797807499279354602e+02
2.829373630490258051e+02
2.829129941889934230e+02
2.812862525257018547e+02
2.786653513997698042e+02
2.704164815472631176e+02
2.752319652711188382e+02
2.744309064090436436e+02
2.763194136144871322e+02
2.772224846700108287e+02
2.776407189459451956e+02
2.777302607692906236e+02
2.121709884673315969e+02
2.449769418644696941e+02
2.663776985158815478e+02
2.057021321376324181e+02
1.896546690122649181e+02
9.151626377905813570e+01
8.918393193223894855e+01
1.245827615917275182e+02
1.645985883846674938e+02
2.775318279178635521e+02
2.819685828571281832e+02
2.833324138165092450e+02
2.834926695069638072e+02
2.824289863815287163e+02
2.808345327007356786e+02
2.790705935096923440e+02
2.771213084269107867e+02
2.778408898438432288e+02
2.779656533214585465e+02
2.779561860216793434e+02
2.778511592953683476e+02
2.776380654932864331e+02
2.408477463996697736e+02
2.628198675335724488e+02
2.749210111302969608e+02
2.215114347576011085e+02
1.988920176963927133e+02
9.331901608672994541e+01
1.224117815135267193e+02
1.659091689928906703e+02
2.806694379158722654e+02
2.829718576433205612e+02
2.834820384529375019e+02
2.828127951489266820e+02
2.815482386068767369e+02
2.801947711831982133e+02
2.790162925530747202e+02
2.786616704580210353e+02
2.783086697817620347e+02
2.779641946217011537e+02
2.774801964664139859e+02
2.767616342507240006e+02
2.408072348249123991e+02
2.559855592034192853e+02
2.693284998045502903e+02
2.769238231341865344e+02
2.235233150064622123e+02
1.959712173641119364e+02
1.160913759512533545e+02
1.579141503313940973e+02
9.981915241826153817e+01
2.807847063426622185e+02
2.823569457160778029e+02
2.805500180680964490e+02
2.824636337987356001e+02
2.817192654739262139e+02
2.795529011002919333e+02
1.176394307709390858e+02
2.787425263551643866e+02
2.780088767838528270e+02
2.726744895503899215e+02
2.770263679752316648e+02
2.754728112783723759e+02
2.439445071273692633e+02
2.587300469928022153e+02
2.689056146393965605e+02
2.753292419312152219e+02
2.200598435364983061e+02
1.863377265463760466e+02
1.450241064180410717e+02
1.306202058369279086e+02
9.359710116497464583e+01
2.789394403614117550e+02
2.804837685334367734e+02
2.799803296309055440e+02
2.804967955710735055e+02
2.808266814065558492e+02
2.790599063092794836e+02
9.866099617709618030e+01
1.513624945381146460e+02
2.037466444813414626e+02
2.454278447178593865e+02
2.778516999316805141e+02
2.760932838144219090e+02
2.608464672823340038e+02
2.689562512677421182e+02
2.733323389142930182e+02
2.396504183050416259e+02
2.540687354987530568e+02
2.643486781432649195e+02
2.711049355502526623e+02
2.101961913368416219e+02
1.722504116821475861e+02
1.524142387431390944e+02
1.062984240931599231e+02
2.742223832196478384e+02
2.775235344133303101e+02
2.790328988865109068e+02
2.786445937229317451e+02
2.772027898652787599e+02
1.236033187049761608e+02
1.797774658605139564e+02
2.190894422440651113e+02
2.385445093317467240e+02
2.742693776598086970e+02
2.698258323477811587e+02
2.536522931172260940e+02
2.634220800646762086e+02
2.301610034183147491e+02
2.455650827106736642e+02
2.565137740947878910e+02
2.633584384283551003e+02
2.649003704374348445e+02
1.927889153809395566e+02
1.619682895637910178e+02
1.291351309944806758e+02
9.599715999918878140e+01
2.701040800875269383e+02
2.735881572368560342e+02
2.758477361945210760e+02
2.717233584523579566e+02
1.049021880185286619e+02
1.583609514272565093e+02
2.042500373874858894e+02
2.262158442206476252e+02
2.639851016305170788e+02
2.553639399143364983e+02
2.428112552158400206e+02
2.180456701615627253e+02
2.338073631748735011e+02
2.451660435849471753e+02
2.515987702698864723e+02
2.563014250239268108e+02
1.831356356277164537e+02
1.452693164261096967e+02
1.031867090111530700e+02
2.630866623079404008e+02
2.682117074643894625e+02
2.609278900676702619e+02
2.524340957936559562e+02
9.960804114321487646e+01
1.398599764474802782e+02
1.859868541316902224e+02
2.102196512949696796e+02
2.438307164630111004e+02
2.299124994295135878e+02
2.478800212936990306e+02
2.027706439504403306e+02
2.195025490086246691e+02
2.315477858761007326e+02
2.402189990785705334e+02
1.653681026690138367e+02
1.270601007033826306e+02
9.342455550008638454e+01
2.522657384160610263e+02
2.426499809833748031e+02
2.310161661738489443e+02
1.148706325310382681e+02
1.663086973857383839e+02
1.927000274512636793e+02
2.145183235900775571e+02
9.650984607156122763e+01
2.384336971275290580e+02
2.290393694793806105e+02
1.857661230972915973e+02
2.037205221816046219e+02
2.172286984531193355e+02
1.462074339227132214e+02
1.042862850983965757e+02
2.309744840513747874e+02
2.158613623576965210e+02
1.988519662654946671e+02
1.447603606311946578e+02
1.783636608673319301e+02
1.086263356271756493e+02
2.179325120235079112e+02
2.021877513184243185e+02
1.666478569151990143e+02
1.857209376504633269e+02
1.265906189550696297e+02
9.209548537053865402e+01
2.013277256914322493e+02
1.815961511113037830e+02
1.601825829633473859e+02
1.371290213475758151e+02
9.361357785311290058e+01
1.843282289823708595e+02
1.653961819649358063e+02
1.394819275214586582e+02
9.642320824129603807e+01
1.635968216579000227e+02
1.410719914930187997e+02
1.166059016119850469e+02
1.238341433098408260e+02
1.363640187673742901e+02
9.827082948867872858e+01
1.181552899356158548e+02
9.680658156749844068e+01
1.021637109184497660e+02
9.259160779609663905e+01
8.760846868959272626e+01
</DataArray>
<DataArray type="Float64" Name="Temperature_@_t=2" Format="ascii">
1.531881699288815923e+02
1.272085533582540080e+02
1.531881699288824166e+02
1.531881699288825587e+02
1.395355070471091778e+02
1.531881699288824734e+02
1.038139169066434704e+02
8.680662962636660041e+01
1.508857432061957411e+02
1.531881699288824734e+02
1.531881699288824734e+02
1.451365712271428379e+02
1.531881699288824734e+02
1.541963208517578039e+02
1.531881699288824734e+02
1.567246804546264798e+02
2.042508932385099740e+01
1.531881699288824734e+02
1.589028183431177013e+02
1.531881699288824734e+02
1.603342846763081582e+02
6.492372629232708903e+01
2.042508932385099740e+01
1.531881699288824734e+02
1.612013033065560137e+02
1.531881699288824734e+02
1.673665403099400635e+02
8.411368696637158848e+01
2.042508932385099740e+01
1.531881699288824734e+02
1.712360013246665460e+02
1.787195315836959537e+02
8.388336920372557870e+01
2.042508932385099740e+01
2.042508932385100593e+02
8.888022633990117072e+01
2.042508932385099740e+01
1.957945581788369225e+02
2.042508932385100593e+02
8.414310432904228776e+01
2.042508932385099740e+01
2.046230970112964656e+02
2.042508932385101161e+02
8.838329480608332744e+01
2.042508932385099740e+01
2.042508932385100593e+02
2.066518030567918345e+02
8.793182898957972782e+01
2.042508932385099740e+01
1.957734082929556507e+02
1.123379912811802512e+02
9.181536846916640116e+01
2.042508932385099740e+01
2.042508932385099740e+01
1.336223239123621909e+02
2.042508932385099740e+01
9.727069934890970160e+01
2.042508932385099740e+01
9.769274720108231236e+01
2.042508932385099740e+01
2.042508932385099740e+01
8.679071760552997716e+01
1.114473401271977622e+02
9.144525335010848721e+01
2.042508932385099740e+01
2.042508932385099740e+01
1.085569119005096894e+02
9.918820613565020494e+01
2.042508932385099740e+01
9.403122427977770315e+01
2.042508932385099740e+01
1.059454075975032339e+02
1.520671994072465907e+02
1.863943887536621276e+02
2.042508932385099740e+01
1.965732408661859409e+01
2.042508932385099740e+01
2.042508932385099740e+01
2.237010309860223245e+01
2.042508932385099740e+01
2.042508932385099740e+01
9.693925972996605367e+01
2.042508932385099740e+01
2.320522448635460933e+02
2.124547908226687127e+02
2.042508932385099740e+01
9.748349033976444389e+01
2.707813381525194174e+01
2.042508932385099740e+01
4.014517915089945177e+01
2.042508932385099740e+01
2.558560564775795285e+02
2.470150486273414003e+02
9.502735505523334325e+01
2.042508932385099740e+01
7.875998548030035806e+01
2.042508932385099740e+01
2.042508932385099740e+01
3.517030378086526810e+01
8.290792431855797417e+01
2.962021571922279506e+01
2.042508932385099740e+01
2.624828239977086355e+02
2.668211244483351834e+02
2.042508932385099740e+01
3.496118946559295892e+01
2.699777263174248105e+02
2.688495868035561784e+02
2.042508932385099740e+01
3.744284280363400796e+01
2.668070994457370944e+02
2.689548760764910185e+02
3.823717939338273197e+01
2.042508932385099740e+01
2.042508932385099740e+01
2.042508932385099740e+01
4.567777695094719803e+01
2.042508932385099740e+01
1.115272740897335950e+02
2.558235986827455406e+02
2.612168095038273918e+02
2.042508932385099740e+01
4.689783064650389122e+01
2.042508932385099740e+01
4.318127390598539250e+01
3.773096682790863099e+01
2.042508932385112530e+01
1.379298141929448036e+02
1.864056639604510508e+02
2.320135300064765715e+02
2.413720104739477392e+02
3.720998779313185878e+01
2.042508932385099740e+01
2.042508932385099740e+01
4.481280367867329062e+01
2.101305791956301903e+02
4.086516345547948248e+01
2.042508932385099740e+01
2.042508932385099740e+01
4.866615253727093204e+01
4.147741920638166135e+01
2.042508932385099740e+01
2.042508932385099740e+01
4.147395860028288439e+01
2.042508932385099740e+01
4.316820690920622638e+01
2.042508932385099740e+01
4.360157818570435495e+01
2.042508932385099740e+01
4.750226183658119794e+01
4.218973846022709040e+01
2.042508932385099740e+01
2.042508932385099740e+01
4.945551904665391874e+01
4.188578736138843794e+01
2.042508932385099740e+01
3.983055060640337075e+01
2.042508932385099740e+01
2.042508932385099740e+01
4.285445306033837198e+01
2.042508932385099740e+01
4.669200908418913798e+01
2.042508932385099740e+01
4.360651970582553361e+01
3.752619699682396970e+01
2.042508932385099740e+01
4.240534431154848249e+01
2.042508932385112530e+01
2.042508932385112530e+01
4.685684248415749664e+01
4.282207141588011723e+01
2.042508932385099740e+01
3.900570405676867125e+01
2.042508932385099740e+01
4.276895151079141044e+01