<?xml version="1.0" encoding="UTF-8"?>
<VTKFile type="UnstructuredGrid" version="0.1" byte_order="LittleEndian">
<UnstructuredGrid>
<Piece NumberOfPoints="504" NumberOfCells="911">
<PointData>
<DataArray type="Float64" Name="Temperature_@_t=0" Format="ascii">
2.205472961344752605e+02
2.221596062972031120e+02
2.205472961344762552e+02
2.205472961344763121e+02
2.360264658770695121e+02
2.205472961344763121e+02
1.968612961232524583e+02
1.249768011428699310e+02
2.482911224390711595e+02
2.205472961344763121e+02
2.205472961344763121e+02
2.399950227445006874e+02
2.205472961344763121e+02
2.514552573912198170e+02
2.205472961344763121e+02
2.545748493797785557e+02
2.940630615126353220e+01
2.205472961344763121e+02
2.572393554525208401e+02
2.205472961344763121e+02
2.595692346247556657e+02
1.457851352745592521e+02
2.940630615126353220e+01
2.205472961344763121e+02
2.616343958756371535e+02
2.205472961344763121e+02
2.690650742797186012e+02
1.585439536206802416e+02
2.940630615126353220e+01
2.205472961344763121e+02
2.752651892563047795e+02
2.573051788235557069e+02
1.564328142676978644e+02
2.940630615126353220e+01
2.940630615126353291e+02
1.599175621577512914e+02
2.940630615126353220e+01
2.946054988347353856e+02
2.940630615126353291e+02
1.554133335632248532e+02
2.940630615126353220e+01
3.004273415221347818e+02
2.940630615126351017e+02
1.592281245985477938e+02
2.940630615126353220e+01
2.940630615126353291e+02
2.986850664445473740e+02
1.592468414101107612e+02
2.940630615126353220e+01
2.892104327256236047e+02
1.617346838319492974e+02
1.631612791042975061e+02
2.940630615126353220e+01
2.940630615126353220e+01
2.102143980917885813e+02
2.940630615126353220e+01
1.712737286640098944e+02
2.940630615126353220e+01
1.715923055816579392e+02
2.940630615126353220e+01
2.940630615126353220e+01
1.614294741359835257e+02
1.844607031415805807e+02
1.631348695444166026e+02
2.940630615126353220e+01
2.940630615126353220e+01
1.838542368787773285e+02
1.740255917154856888e+02
2.940630615126353220e+01
1.686722599239531917e+02
2.940630615126353220e+01
1.795583176204065410e+02
2.235545822416699195e+02
2.583711230551033395e+02
2.940630615126353220e+01
9.907519874896777878e+01
2.940630615126353220e+01
2.940630615126353220e+01
1.011779499781684990e+02
2.940630615126353220e+01
2.940630615126353220e+01
1.679739452136796274e+02
2.940630615126353220e+01
3.100422129423347428e+02
2.868073663029356339e+02
2.940630615126353220e+01
1.677796335664533558e+02
1.048284469277283790e+02
2.940630615126353220e+01
1.149895273566542500e+02
2.940630615126353220e+01
3.422406159037601014e+02
3.296085928771568661e+02
1.643171951729022169e+02
2.940630615126353220e+01
1.487122753649139781e+02
2.940630615126353220e+01
2.940630615126353220e+01
1.112059825329376963e+02
1.503990330314058212e+02
1.070414906293238886e+02
2.940630615126353220e+01
3.524658459202663039e+02
3.596108308638067683e+02
2.940630615126353220e+01
1.113581250862695526e+02
3.650558551764120239e+02
3.630772817990456360e+02
2.940630615126353220e+01
1.135422138339901892e+02
3.595025413162242103e+02
3.631982105054706835e+02
1.144185674331727398e+02
2.940630615126353220e+01
2.940630615126353220e+01
2.940630615126353220e+01
1.236119305143586757e+02
2.940630615126353220e+01
1.843904477204056320e+02
3.420456902835880442e+02
3.503032901713640968e+02
2.940630615126353220e+01
1.218215385282460801e+02
2.940630615126353220e+01
1.213176742667115491e+02
1.163897844786926044e+02
2.940630615126350733e+01
2.095855768112064368e+02
2.581939487933428836e+02
3.098124255509509908e+02
3.217699090762486662e+02
1.140752991250265751e+02
2.940630615126353220e+01
2.940630615126353220e+01
1.227948138652358523e+02
2.839412168920046042e+02
1.173050317313744841e+02
2.940630615126353220e+01
2.940630615126353220e+01
1.262933052175047379e+02
1.197707671550308248e+02
2.940630615126353220e+01
2.940630615126353220e+01
1.180656923001230325e+02
2.940630615126353220e+01
1.212859924486387655e+02
2.940630615126353220e+01
1.201168804393812479e+02
2.940630615126353220e+01
1.252088521311794125e+02
1.191132518987971451e+02
2.940630615126353220e+01
2.940630615126353220e+01
1.269576593517860630e+02
1.190390316090505962e+02
2.940630615126353220e+01
1.182372565737124148e+02
2.940630615126353220e+01
2.940630615126353220e+01
1.200623775925618020e+02
2.940630615126353220e+01
1.243949943602298589e+02
2.940630615126353220e+01
1.208770059233970642e+02
1.161118731853154884e+02
2.940630615126353220e+01
1.199485662549704870e+02
2.940630615126350733e+01
2.940630615126350733e+01
1.244728712616873736e+02
1.204271347636519351e+02
2.940630615126353220e+01
1.173741260977821668e+02
2.940630615126353220e+01
1.204810233695021822e+02
2.940630615126353220e+01
2.940630615126353220e+01
1.245716350562550474e+02
2.940630615126353220e+01
1.220685998009324891e+02
1.144572567552568501e+02
1.735320743003559585e+02
2.153729474605113126e+02
1.924571110422181164e+02
2.454172978380123311e+02
2.274635034852662727e+02
2.539859387431484947e+02
2.587355682076548078e+02
1.703827280532363204e+02
2.173291216003636634e+02
2.470747755402389316e+02
2.622494096376768766e+02
2.641052421660331788e+02
2.679920843541686395e+02
2.090962964994063782e+02
2.438242077133292582e+02
2.656446887737155862e+02
2.754149089954190686e+02
2.783643986808762065e+02
2.909346402069187434e+02
2.040001491736636297e+02
2.425235681758712758e+02
2.680725815476318417e+02
2.842326622904519695e+02
2.016877249147956377e+02
2.414962540012035106e+02
2.702300349802576420e+02
2.875405848681579641e+02
2.036797161867294790e+02
2.407644564779456857e+02
2.687875332064053282e+02
2.845324232349450426e+02
2.068572657947077573e+02
2.410747746611669413e+02
2.679574519181143160e+02
2.817737787387138724e+02
2.105460698013240517e+02
2.424998195489357329e+02
2.705004941936374507e+02
2.761923281873205838e+02
2.592870454167584171e+02
2.137927751655199415e+02
2.510113997944779953e+02
2.776013975938208773e+02
2.857966609336543797e+02
2.693118608527847186e+02
2.188740435213016156e+02
2.579184399628447864e+02
2.870937013748468303e+02
3.003428118493825991e+02
2.952271172404819595e+02
2.720078073211797687e+02
2.412317007965356197e+02
2.265476494812209296e+02
2.419744932521424516e+02
2.211676235616547501e+02
2.627822580563549195e+02
2.942722196637091656e+02
3.119617326050497468e+02
3.159333706958312860e+02
3.069047035665241197e+02
2.859270508460787710e+02
2.460038942215363136e+02
2.295011052898616697e+02
2.265893689113103733e+02
2.488853677185338995e+02
2.750725566988879791e+02
2.974353334764012970e+02
1.111590671505746712e+02
2.228042868777873764e+02
2.665105235001291817e+02
2.986581968055106699e+02
3.195588427580681810e+02
3.292519120088672366e+02
3.285564383532279749e+02
3.186174124678358339e+02
3.002311158474961985e+02
2.797797911296225948e+02
2.739305411834766915e+02
2.976436564065100470e+02
3.168828654514647383e+02
3.348840204007003649e+02
2.242064732874742106e+02
1.186125430497003208e+02
1.301654194004755141e+02
1.390208842984808371e+02
2.662862515691618910e+02
2.998241584216387423e+02
3.236626130363979428e+02
3.367733222900647547e+02
3.415341255929778299e+02
3.391381750139049132e+02
3.048856707046308543e+02
3.304582206156715642e+02
3.170593792456020878e+02
3.177042287907094078e+02
3.321615179583312170e+02
3.440442996921573240e+02
3.547369327148895763e+02
3.524924823484518015e+02
3.614442437802331938e+02
1.904647471001492818e+02
2.255427636499461244e+02
2.656522550646477043e+02
1.876288071390385426e+02
1.873052272117031976e+02
1.320394157825383274e+02
1.248744541909370298e+02
1.709770398438829204e+02
1.529248822852721617e+02
2.976617198364659771e+02
3.243979736860936214e+02
3.396003249905286339e+02
3.479281259644573652e+02
3.504141630265670528e+02
3.480944815890999280e+02
3.318820637224464463e+02
3.420074561962149460e+02
3.439401464493296317e+02
3.525143709978697757e+02
3.587260530935894849e+02
3.631454959179093862e+02
3.649700304888366986e+02
2.257942021980205141e+02
2.608353458047189974e+02
2.908591309980185997e+02
2.157410786059347743e+02
2.001691928560942131e+02
1.324944505077327790e+02
1.317232427511295327e+02
1.532565381550332404e+02
1.805845512639340598e+02
3.138133114998146311e+02
3.288785135597810267e+02
3.389725573151437743e+02
3.489658904631168070e+02
3.548307213123939619e+02
3.567694675410396599e+02
3.555502433525757624e+02
3.516314957843017623e+02
3.583854428675611530e+02
3.623679474696190255e+02
3.644886324477412813e+02
3.646606709678554239e+02
3.628312450977334152e+02
2.506439938720615999e+02
2.806183530464005003e+02
3.037661365315272519e+02
2.284471580392253998e+02
2.082268496278463203e+02
1.350800628095346383e+02
1.537707417593344985e+02
1.833230635617846644e+02
3.213578334642326126e+02
3.346068957727359816e+02
3.453723620196932416e+02
3.535918133513704333e+02
3.587633177197712939e+02
3.610109611192588659e+02
3.611663432992698404e+02
3.637676791034509165e+02
3.642848176396717577e+02
3.629601254880885222e+02
3.597919428464299472e+02
3.555527605466096475e+02
2.490222110134147329e+02
2.685209636270323585e+02
2.909879166068867562e+02
3.096116307280676665e+02
2.315915778984634699e+02
2.083056179076655781e+02
1.512294339860700347e+02
1.800533465681704399e+02
1.413002431433350807e+02
3.248988521419897211e+02
3.374981894361441732e+02
3.603423530706021438e+02
3.474747417819178850e+02
3.551380756249720889e+02
3.625564882678988852e+02
1.643965891477111541e+02
3.620561260828424111e+02
3.593462751477405845e+02
3.387406804567489758e+02
3.546564795806174288e+02
3.480929694944355219e+02
2.545691809633452181e+02
2.751554183992224694e+02
2.941370950189068481e+02
3.108949501963302851e+02
2.315662736197323568e+02
2.037884765162800988e+02
1.730492352509925524e+02
1.644675652862413244e+02
1.380162654913814606e+02
3.254009240136291510e+02
3.371565408481067152e+02
3.580274063262140771e+02
3.535491927576604212e+02
3.465401601084319054e+02
3.572732033852541917e+02
1.487292068744009157e+02
1.930359288484599176e+02
2.416156662687290577e+02
2.889770114956891689e+02
3.539041677960919401e+02
3.478165192344896468e+02
3.123499146294804518e+02
3.283338922584630950e+02
3.392907207722561793e+02
2.538125692157069579e+02
2.738643261380222498e+02
2.919304171738069158e+02
3.075249803489143119e+02
2.265171441265886187e+02
1.956657710743548364e+02
1.823473466548075237e+02
1.480038026466100689e+02
3.194858101400672581e+02
3.335263180105624770e+02
3.507876115956490821e+02
3.431088969153595372e+02
3.465624943211854543e+02
1.693214062030988032e+02
2.184755776197167449e+02
2.575219293326659908e+02
2.799137419820202126e+02
3.389449128476482542e+02
3.286224497607195190e+02
3.003018777466110691e+02
3.161398008050609292e+02
2.483038042422381295e+02
2.680889894611339628e+02
2.849317845758856720e+02
2.979204985030526132e+02
3.039652390179525696e+02
2.151032583721456604e+02
1.913112246724193994e+02
1.659444903608088850e+02
1.413481832027182747e+02
3.162056216882007789e+02
3.276633620452461741e+02
3.377597452125252175e+02
3.294540768299539195e+02
1.537730512834071703e+02
1.990566642899672729e+02
2.419481782980176661e+02
2.650823104261317553e+02
3.150286296466125009e+02
3.017775775523705875e+02
2.847513356722583922e+02
2.401565804483484783e+02
2.587393430036751738e+02
2.741104132804860569e+02
2.848614342063848426e+02
2.938072864681266765e+02
2.097366479912931254e+02
1.795347966379488867e+02
1.474150827095763248e+02
3.070050864668907025e+02
3.190401283506158165e+02
3.079698007789641565e+02
2.957775693569631699e+02
1.493819896855594607e+02
1.829167466308350356e+02
2.240536139489382208e+02
2.476038363076812914e+02
2.848630649041149923e+02
2.685316355431778561e+02
2.848852702502236980e+02
2.288325470926520779e+02
2.468391261102161707e+02
2.614849225974596152e+02
2.734875761237631764e+02
1.969480509931196934e+02
1.665137205287244626e+02
1.407941311531998281e+02
2.929731800569221036e+02
2.818354759882523695e+02
2.686588760405638254e+02
1.618385750376396572e+02
2.058408090118442999e+02
2.299176601929916615e+02
2.512467939517827915e+02
1.466994371591047752e+02
2.745622585848107633e+02
2.624285336675264944e+02
2.157864605729741925e+02
2.336458080510289506e+02
2.484733969948460697e+02
1.827737390409780858e+02
1.497278911200233154e+02
2.669852216273561680e+02
2.514939776299745517e+02
2.350232564842087299e+02
1.867728474127642642e+02
2.161525480450260659e+02
1.564725681002209967e+02
2.517906189028351207e+02
2.350478505789491237e+02
2.008546045632901382e+02
2.186434918684065849e+02
1.679282421286094973e+02
1.408333648497605282e+02
2.361676493198125115e+02
2.182679405192807280e+02
1.995663964329060320e+02
1.800462091640083884e+02
1.441768578441416082e+02
2.194195245177879201e+02
2.018413156511184923e+02
1.792017399787328600e+02
1.445725720382706072e+02
2.016573367695168315e+02
1.828083943714957798e+02
1.627353276289008193e+02
1.671829782352876919e+02
1.780019565265984909e+02
1.464335429889428326e+02
1.634913483739400988e+02
1.464577839018175212e+02
1.500455948606942798e+02
1.422430950502536575e+02
1.387250959728230839e+02
</DataArray>
<DataArray type="Float64" Name="Temperature_@_t=1" Format="ascii">
1.771547007271273628e+02
1.784497894875137263e+02
1.771547007271281871e+02
1.771547007271282155e+02
1.895883497961310127e+02
1.771547007271282155e+02
1.581289120779098880e+02
1.003876637453726772e+02
1.994399399123734895e+02
1.771547007271282155e+02
1.771547007271282155e+02
1.927760946313235877e+02
1.771547007271282155e+02
2.019815325336965941e+02
1.771547007271282155e+02
2.044873460023273708e+02
2.362062676361711411e+01
1.771547007271282155e+02
2.066276115334652559e+02
1.771547007271282155e+02
2.084990878776411307e+02
1.171019661663909517e+02
2.362062676361711411e+01
1.771547007271282155e+02
2.101579294493378143e+02
1.771547007271282155e+02
2.161266247448446052e+02
1.273504919264196360e+02
2.362062676361711411e+01
1.771547007271282155e+02
2.211068694923530131e+02
2.066804841816496037e+02
1.256547184264678947e+02
2.362062676361711411e+01
2.362062676361711624e+02
1.284538435138844648e+02
2.362062676361711411e+01
2.366419806244694541e+02
2.362062676361711624e+02
1.248358201571920034e+02
2.362062676361711411e+01
2.413183780097168949e+02
2.362062676361709919e+02
1.279000525284068317e+02
2.362062676361711411e+01
2.362062676361711624e+02
2.399188948813173852e+02
1.279150868145174371e+02
2.362062676361711411e+01
2.323083916904205637e+02
1.299134471998940228e+02
1.310593604029173207e+02
2.362062676361711411e+01
2.362062676361711411e+01
1.688547963869719410e+02
2.362062676361711411e+01
1.375756886422736329e+02
2.362062676361711411e+01
1.378315856743102472e+02
2.362062676361711411e+01
2.362062676361711411e+01
1.296682873938320029e+02
1.481681309801107034e+02
1.310381469137518025e+02
2.362062676361711411e+01
2.362062676361711411e+01
1.476809867204844124e+02
1.397861237002894370e+02
2.362062676361711411e+01
1.354860578729409895e+02
2.362062676361711411e+01
1.442302879184435938e+02
1.795703044532146748e+02
2.075367042969780300e+02
2.362062676361711411e+01
7.958219162728802587e+01
2.362062676361711411e+01
2.362062676361711411e+01
8.127122736357527799e+01
2.362062676361711411e+01
2.362062676361711411e+01
1.349251363124407135e+02
2.362062676361711411e+01
2.490415271882802131e+02
2.303781276590759148e+02
2.362062676361711411e+01
1.347690554068231847e+02
8.420349044700139984e+01
2.362062676361711411e+01
9.236538222260068665e+01
2.362062676361711411e+01
2.749049067921034748e+02
2.647582294214065541e+02
1.319878504310810854e+02
2.362062676361711411e+01
1.194531925735239639e+02
2.362062676361711411e+01
2.362062676361711411e+01
8.932624838291629032e+01
1.208080813200373456e+02
8.598111865430057321e+01
2.362062676361711411e+01
2.831183267486813975e+02
2.888575386617621916e+02
2.362062676361711411e+01
8.944845694759048627e+01
2.932312565420456281e+02
2.916419667131634128e+02
2.362062676361711411e+01
9.120282707701620950e+01
2.887705550408786053e+02
2.917391027432645387e+02
9.190675844373613756e+01
2.362062676361711411e+01
2.362062676361711411e+01
2.362062676361711411e+01
9.929133088633037119e+01
2.362062676361711411e+01
1.481116982859410314e+02
2.747483327124803623e+02
2.813812530088659969e+02
2.362062676361711411e+01
9.785319783259014059e+01
2.362062676361711411e+01
9.744846867007609603e+01
9.349013929622394414e+01
2.362062676361709634e+01
1.683496954506881593e+02
2.073943890028490387e+02
2.488569503774784266e+02
2.584618036334533144e+02
9.163102804275375490e+01
2.362062676361711411e+01
2.362062676361711411e+01
9.863498162260491142e+01
2.280758920387256978e+02
9.422531200512588612e+01
2.362062676361711411e+01
2.362062676361711411e+01
1.014451461513495190e+02
9.620591493568177555e+01
2.362062676361711411e+01
2.362062676361711411e+01
9.483631290050486484e+01
2.362062676361711411e+01
9.742302023748342776e+01
2.362062676361711411e+01
9.648393056489807407e+01
2.362062676361711411e+01
1.005740587912785458e+02
9.567776555238316405e+01
2.362062676361711411e+01
2.362062676361711411e+01
1.019787888660789577e+02
9.561814807600335087e+01
2.362062676361711411e+01
9.497412196947057339e+01
2.362062676361711411e+01
2.362062676361711411e+01
9.644015113215823476e+01
2.362062676361711411e+01
9.992032722270332101e+01
2.362062676361711411e+01
9.709450165325900173e+01
9.326690694257544578e+01
2.362062676361711411e+01
9.634873213131928082e+01
2.362062676361709634e+01
2.362062676361709634e+01
9.998288187385102788e+01
9.673314247059271054e+01
2.362062676361711411e+01
9.428081208160573112e+01
2.362062676361711411e+01
9.677642851403702196e+01
2.362062676361711411e+01
2.362062676361711411e+01
1.000622139299495217e+02
2.362062676361711411e+01
9.805164989521411201e+01
9.193783565663004254e+01
1.393897056461427724e+02
1.729984031580337671e+02
1.545912487120357923e+02
1.971315391925913616e+02
1.827101469505490741e+02
2.040143033061992242e+02
2.078294450064008743e+02
1.368599920578410831e+02
1.745697007907392049e+02
1.984629087965097938e+02
2.106519394910242227e+02
2.121426376855745843e+02
2.152647451730899206e+02
1.679566808514261425e+02
1.958518889351813073e+02
2.133791987672533139e+02
2.212271319305719999e+02
2.235963106585955131e+02
2.336933620151262119e+02
1.638631985454683502e+02
1.948071497248137121e+02
2.153294045748023677e+02
2.283099956674945474e+02
1.620057428671900368e+02
1.939819592175810214e+02
2.170623798770998576e+02
2.309670857545328317e+02
1.636058106250614230e+02
1.933941425746304503e+02
2.159036897706052400e+02
2.285507787618335271e+02
1.661581785738562473e+02
1.936434057750517752e+02
2.152369266554649982e+02
2.263348965057010957e+02
1.691212118156452675e+02
1.947880736310633552e+02
2.172796263446148259e+02
2.218515941964655553e+02
2.082724192874232187e+02
1.717291291523084453e+02
2.016250037478332899e+02
2.229834297409834392e+02
2.295662781811791149e+02
2.163248561548925295e+02
1.758106599199033440e+02
2.071730864284352265e+02
2.306081264160825981e+02
2.412504795174594960e+02
2.371412958487620699e+02
2.184903761959710380e+02
1.937694567538429737e+02
1.819744868683802963e+02
1.943661050804457204e+02
1.776529789723877570e+02
2.110799501889484873e+02
2.363742740017333688e+02
2.505833820980804774e+02
2.537736019271182215e+02
2.465213215714252044e+02
2.296710139286502397e+02
1.976027229640189660e+02
1.843468513863815588e+02
1.820079980166987923e+02
1.999172676624155827e+02
2.209521373162728821e+02
2.389150463923939469e+02
8.928856358392899040e+01
1.789676294126441576e+02
2.140746808453624510e+02
2.398973118333924219e+02
2.566857637601452780e+02
2.644717253763131453e+02
2.639130858940442295e+02
2.559295595162271582e+02
2.411607596608418476e+02
2.247332251892375723e+02
2.200348129128257995e+02
2.390823818663936322e+02
2.545362839559818440e+02
2.689957186154303486e+02
1.800939361873155349e+02
9.527557097612734083e+01
1.045554233630329435e+02
1.116685789595956493e+02
2.138945343302685842e+02
2.408338709514808045e+02
2.599821188198197319e+02
2.705133010871259671e+02
2.743374181773397709e+02
2.724128699501247866e+02
2.448995326459838395e+02
2.654406932302317728e+02
2.546780687292376797e+02
2.551960443751864318e+02
2.668088674780094038e+02
2.763537164911580248e+02
2.849425780928534095e+02
2.831397224699001640e+02
2.903302282943784007e+02
1.529908816067346606e+02
1.811673119366328990e+02
2.133852763933643075e+02
1.507129117386101029e+02
1.504529960371115465e+02
1.060607116800823349e+02
1.003054535167378560e+02
1.373373732330172459e+02
1.228369707079067581e+02
2.390968913234762567e+02
2.605727975454564671e+02
2.727840920971871128e+02
2.794734014431147671e+02
2.814703116725925156e+02
2.796070266628040031e+02
2.665843957551962262e+02
2.747176211670437169e+02
2.762700553586649903e+02
2.831573045359917273e+02
2.881468405764078398e+02
2.916967597304638389e+02
2.931623178286318421e+02
1.813692800474013893e+02
2.095160921715269922e+02
2.336327092139388810e+02
1.732941046426534513e+02
1.607859814050509897e+02
1.064262184986883710e+02
1.058067455705950408e+02
1.231033734132751931e+02
1.450546104886208809e+02
2.520706635598071159e+02
2.641717929279937493e+02
2.722798374696846508e+02
2.803069861771264755e+02
2.850179138199909517e+02
2.865752124762943822e+02
2.855958701764237162e+02
2.824481346800001234e+02
2.878732452809123288e+02
2.910721936393260876e+02
2.927756346663549607e+02
2.929138246740247382e+02
2.914443376378911239e+02
2.013298847988738487e+02
2.254068003724825076e+02
2.440002663894207444e+02
1.835002678505997267e+02
1.672582973163342217e+02
1.085031125778739778e+02
1.235164076568564724e+02
1.472543215486353176e+02
2.581308037390853087e+02
2.687731181510781653e+02
2.774204830682379566e+02
2.840227605222159468e+02
2.881767734017684006e+02
2.899821938297511110e+02
2.901070046258054163e+02
2.921965286143447429e+02
2.926119203431229607e+02
2.915478608611775826e+02
2.890030169316937076e+02
2.855978921135027804e+02
2.000271870918351169e+02
2.156895676531072183e+02
2.337361563039593761e+02
2.486956618585125796e+02
1.860260243159345066e+02
1.673215679674949570e+02
1.214751012073152339e+02
1.446279201117618811e+02
1.134994748313077935e+02
2.609751283584392354e+02
2.710955509019336205e+02
2.894451341566581277e+02
2.791092204235332588e+02
2.852647962901744449e+02
2.912236391083005174e+02
1.320516236719837480e+02
2.908217229900687926e+02
2.886450341807424707e+02
2.720935822936999102e+02
2.848779540817031943e+02
2.796058120721813225e+02
2.044827928446399028e+02
2.210186960090421167e+02
2.362657350786525683e+02
2.497264887166153926e+02
1.860056986442790503e+02
1.636931724017425438e+02
1.390018649934186215e+02
1.321086352826471568e+02
1.108616185151201989e+02
2.613784177830784188e+02
2.708211215417535414e+02
2.875856522909123782e+02
2.839885255138714797e+02
2.783585173336595062e+02
2.869798384875466013e+02
1.194667928150530543e+02
1.550561843382598113e+02
1.940778771675509802e+02
2.321208959974006802e+02
2.842736593504731104e+02
2.793837532942002326e+02
2.508951894590001928e+02
2.637343256575459236e+02
2.725354023893864337e+02
2.038750441663801780e+02
2.199816256520127524e+02
2.344932202480400463e+02
2.470195591362390530e+02
1.819499834305001400e+02
1.571686061210410799e+02
1.464705765665860326e+02
1.188841115891534486e+02
2.566271002815535098e+02
2.679051436466276073e+02
2.817702843798178947e+02
2.756023538497321397e+02
2.783764572986722783e+02
1.360074848721640990e+02
1.754905920306910900e+02
2.068545891117344127e+02
2.248408212631163394e+02
2.722576320405011074e+02
2.639661095825849770e+02
2.412175991836121796e+02
2.539394169920163620e+02
1.994501265756611588e+02
2.153425842376546200e+02
2.288715659130538143e+02
2.393047553872721949e+02
2.441601955384736300e+02
1.727817752937335740e+02
1.536708150433082665e+02
1.332949759187249299e+02
1.135379827025069517e+02
2.539922876417981001e+02
2.631957220050281876e+02
2.713056456802435719e+02
2.646341143468645214e+02
1.235182627829590558e+02
1.598923424049953042e+02
1.943449675833902859e+02
2.129274681425401354e+02
2.530468683302022441e+02
2.424029556220470738e+02
2.287266202615816724e+02
1.929058659192828884e+02
2.078324771127609267e+02
2.201792952441595048e+02
2.288150569516047312e+02
2.360008162329684467e+02
1.684710434343897418e+02
1.442113946802079454e+02
1.184112220725496485e+02
2.466019541748814845e+02
2.562691062121922414e+02
2.473768613183286220e+02
2.375834467237397973e+02
1.199911408600188594e+02
1.469279473170561516e+02
1.799711518646495563e+02
1.988878770621173828e+02
2.288163668101857695e+02
2.156981398738692803e+02
2.288342032630163772e+02
1.838098317564826800e+02
1.982736233009091222e+02
2.100378649809613876e+02
2.196790010576749239e+02
1.581985979606085948e+02
1.337522102707636407e+02
1.130929401799278082e+02
2.353308199362946311e+02
2.263844548452012475e+02
2.158003458524954397e+02
1.299968978509554347e+02
1.653417092707801430e+02
1.846814492730653114e+02
2.018140841955247424e+02
1.178363795079725662e+02
2.205422401592211372e+02
2.107958209371232101e+02
1.733305577251903458e+02
1.876760854786906805e+02
1.995863520196377294e+02
1.468130764153183065e+02
1.202689863207320400e+02
2.144559822992390252e+02
2.020126345804181085e+02
1.887825214641866296e+02
1.500253617581735455e+02
1.736246176283856926e+02
1.256866507077827180e+02
2.022509117973144157e+02
1.888022766802774584e+02
1.613365386233500089e+02
1.756254692157476995e+02
1.348884252917217452e+02
1.131244546618301001e+02
1.897017554509957051e+02
1.753238074496406398e+02
1.603017849455116561e+02
1.446221869891144820e+02
1.158101166997889493e+02
1.762488177408268939e+02
1.621291146854105705e+02
1.439438667901692668e+02
1.161279742789254357e+02
1.619813335777683392e+02
1.468409133229297936e+02
1.307172147159342899e+02
1.342897917818207532e+02
1.429801402692572765e+02
1.176227999131839397e+02
1.313244886711283357e+02
1.176422714358048722e+02
1.205241819730248523e+02
1.142568209893777293e+02
1.114309868728691413e+02
</DataArray>
<DataArray type="Float64" Name="Temperature_@_t=2" Format="ascii">
1.569595199498446618e+02
1.581069719185947804e+02
1.569595199498453724e+02
1.569595199498454008e+02
1.679757649666883026e+02
1.569595199498454008e+02
1.401026223299041646e+02
8.894372797157907939e+01
1.767042991181463094e+02
1.569595199498454008e+02
1.569595199498454008e+02
1.708001150798987453e+02
1.569595199498454008e+02
1.789561567099209185e+02
1.569595199498454008e+02
1.811763138804944617e+02
2.092793599331273668e+01
1.569595199498454008e+02
1.830725946393665708e+02
1.569595199498454008e+02
1.847307274880782586e+02
1.037526428551897624e+02
2.092793599331273668e+01
1.569595199498454008e+02
1.862004653821204272e+02
1.569595199498454008e+02
1.914887447473553834e+02
1.128328630067592400e+02
2.092793599331273668e+01
1.569595199498454008e+02
1.959012543877611847e+02
1.831194399414863199e+02
1.113304033294059678e+02
2.092793599331273668e+01
2.092793599331273811e+02
1.138104353477332893e+02
2.092793599331273668e+01
2.096654027600944801e+02
2.092793599331273811e+02
1.106048573591001372e+02
2.092793599331273668e+01
2.138087028569614745e+02
2.092793599331272389e+02
1.133197751119261341e+02
2.092793599331273668e+01
2.092793599331273811e+02
2.125687572099653835e+02
1.133330955280428043e+02
2.092793599331273668e+01
2.058258318316550231e+02
1.151036479632199558e+02
1.161189300049184681e+02
2.092793599331273668e+01
2.092793599331273668e+01
1.496057833822383429e+02
2.092793599331273668e+01
1.218924135652582521e+02
2.092793599331273668e+01
1.221191389930352074e+02
2.092793599331273668e+01
2.092793599331273668e+01
1.148864357452401350e+02
1.312773446882782764e+02
1.161001347990209212e+02
2.092793599331273668e+01
2.092793599331273668e+01
1.308457336227889982e+02
1.238508647052078118e+02
2.092793599331273668e+01
1.200409953354248671e+02
2.092793599331273668e+01
1.277884056194294402e+02
1.590997510567783024e+02
1.838780531632735062e+02
2.092793599331273668e+01
7.051002622626386085e+01
2.092793599331273668e+01
2.092793599331273668e+01
7.200651622770124050e+01
2.092793599331273668e+01
2.092793599331273668e+01
1.195440173918293993e+02
2.092793599331273668e+01
2.206514328697288363e+02
2.041156129410878464e+02
2.092793599331273668e+01
1.194057293084846663e+02
7.460450885252093656e+01
2.092793599331273668e+01
8.183596593337996694e+01
2.092793599331273668e+01
2.435664536410353094e+02
2.345764714240595197e+02
1.169415745551372083e+02
2.092793599331273668e+01
1.058358354921463444e+02
2.092793599331273668e+01
2.092793599331273668e+01
7.914328554396739435e+01
1.070362704022295475e+02
7.617949201086652522e+01
2.092793599331273668e+01
2.508435648226159174e+02
2.559285213214848795e+02
2.092793599331273668e+01
7.925156264621919888e+01
2.598036465993782826e+02
2.583955317281462953e+02
2.092793599331273668e+01
8.080593908781956713e+01
2.558514536099234533e+02
2.584815945003556976e+02
8.142962408711396449e+01
2.092793599331273668e+01
2.092793599331273668e+01
2.092793599331273668e+01
8.797237424201829015e+01
2.092793599331273668e+01
1.312273451762698642e+02
2.434277286042546393e+02
2.493045130266442300e+02
2.092793599331273668e+01
8.669818466187973627e+01
2.092793599331273668e+01
8.633959358415407337e+01
8.283250359008050623e+01
2.092793599331271892e+01
1.491582626551003443e+02
1.837519614470710962e+02
2.204878973411856578e+02
2.289978220005862681e+02
8.118532624349965943e+01
2.092793599331273668e+01
2.092793599331273668e+01
8.739084710821411761e+01
2.020758262670768204e+02
8.348386849880634486e+01
2.092793599331273668e+01
2.092793599331273668e+01
8.988066009991811711e+01
8.523868778339394225e+01
2.092793599331273668e+01
2.092793599331273668e+01
8.402521686175680316e+01
2.092793599331273668e+01
8.631704620750062418e+01
2.092793599331273668e+01
8.548501034509416741e+01
2.092793599331273668e+01
8.910887446109548193e+01
8.477074607298996511e+01
2.092793599331273668e+01
2.092793599331273668e+01
9.035346891608202213e+01
8.471792483576176380e+01
2.092793599331273668e+01
8.414731605088816480e+01
2.092793599331273668e+01
2.092793599331273668e+01
8.544622165521849411e+01
2.092793599331273668e+01
8.852966661191921105e+01
2.092793599331273668e+01
8.602597789792247340e+01
8.263471915127009026e+01
2.092793599331273668e+01
8.536522418562226733e+01
2.092793599331271892e+01
2.092793599331271892e+01
8.858509019353728320e+01
8.570581273375822207e+01
2.092793599331273668e+01
8.353304170914566384e+01
2.092793599331273668e+01
8.574416427945055830e+01