<?xml version="1.0" encoding="UTF-8"?>
<VTKFile type="UnstructuredGrid" version="0.1" byte_order="LittleEndian">
<UnstructuredGrid>
<Piece NumberOfPoints="504" NumberOfCells="911">
<PointData>
<DataArray type="Float64" Name="Temperature_@_t=0" Format="ascii">
-4.024123346937358292e-04
-1.129504236132561346e-04
-4.024123347221575386e-04
-4.024123351200614707e-04
-1.918001767080568243e-04
-4.024123352053265990e-04
1.561775874279192067e-04
-2.280336568674101727e-04
-2.279648152807567385e-04
-4.024123352053265990e-04
-4.024123352053265990e-04
-3.385876992751946091e-04
-4.024123352053265990e-04
-2.297771704320439312e-04
-4.024123352053265990e-04
-1.850847093010088429e-04
-5.365497804277197247e-05
-4.024123352053265990e-04
-1.531942290853294253e-04
-4.024123352053265990e-04
-1.179739886651987035e-04
8.248596770954463864e-06
-5.365497804277197247e-05
-4.024123352053265990e-04
-8.780139245345708332e-05
-4.024123352053265990e-04
-1.104799441691284301e-04
-2.154510881382520893e-04
-5.365497804277197247e-05
-4.024123352053265990e-04
-1.067058893227113003e-04
-4.694810581327146792e-04
-9.157952752048004186e-05
-5.365497804277197247e-05
-5.365497808327290841e-04
-2.598809319351857994e-04
-5.365497804277197247e-05
-1.938364019338223443e-04
-5.365497808327290841e-04
-4.239578429405810311e-04
-5.365497804277197247e-05
8.039440314178136759e-05
-5.365497791274265182e-04
-6.132319239782191289e-04
-5.365497804277197247e-05
-5.365497808327290841e-04
2.401265614935255144e-04
-6.258699134491507721e-04
-5.365497804277197247e-05
-9.516445476265289471e-05
-2.951023791695206455e-04
-6.566536727632410475e-04
-5.365497804277197247e-05
-5.365497804277197247e-05
-6.814037795948024723e-04
-5.365497804277197247e-05
1.270375535682433110e-04
-5.365497804277197247e-05
7.403741511780026485e-05
-5.365497804277197247e-05
-5.365497804277197247e-05
1.112889000296490849e-04
-1.543993772656904184e-05
-6.148267548837793584e-04
-5.365497804277197247e-05
-5.365497804277197247e-05
-4.403650045787799172e-04
-1.250374801315956574e-04
-5.365497804277197247e-05
1.037773644725348277e-04
-5.365497804277197247e-05
1.306850783180379949e-04
9.790368522999415291e-05
4.965039463513676310e-04
-5.365497804277197247e-05
6.178198933071143983e-04
-5.365497804277197247e-05
-5.365497804277197247e-05
5.200488373020561994e-04
-5.365497804277197247e-05
-5.365497804277197247e-05
-6.531304694021855539e-04
-5.365497804277197247e-05
1.310723981873707089e-03
1.024216897121732472e-03
-5.365497804277197247e-05
-5.370039456238373532e-04
3.731791647396676126e-04
-5.365497804277197247e-05
-4.964106318539052154e-05
-5.365497804277197247e-05
1.000197107202893676e-03
1.328659896842054877e-03
-2.694265594413991494e-04
-5.365497804277197247e-05
-6.588118253603170160e-06
-5.365497804277197247e-05
-5.365497804277197247e-05
1.732149573854258051e-04
-3.751718422222438676e-04
4.050622940212633694e-04
-5.365497804277197247e-05
5.621607631951519579e-04
1.002541890215979947e-04
-5.365497804277197247e-05
3.329044001247893902e-04
-3.112076176421396667e-04
-1.240581150341313332e-04
-5.365497804277197247e-05
3.590850674299872480e-04
1.046824079935504415e-04
-1.393032863461485249e-04
4.156325710482633440e-04
-5.365497804277197247e-05
-5.365497804277197247e-05
-5.365497804277197247e-05
4.842933847157837590e-04
-5.365497804277197247e-05
-2.244445079213619465e-05
1.008864544246534933e-03
6.768405818320388789e-04
-5.365497804277197247e-05
3.484903815547113481e-04
-5.365497804277197247e-05
5.141474134688905906e-04
5.788799451238446636e-04
-5.365497802856111775e-05
2.550019644331769086e-06
5.056422864981868770e-04
1.324326187386759557e-03
1.376909957343741553e-03
5.163638404610537691e-04
-5.365497804277197247e-05
-5.365497804277197247e-05
4.991527741822210373e-04
9.686148796959059837e-04
4.729951273816368484e-04
-5.365497804277197247e-05
-5.365497804277197247e-05
4.586470666936293128e-04
5.402341777767105668e-04
-5.365497804277197247e-05
-5.365497804277197247e-05
4.597493721689716040e-04
-5.365497804277197247e-05
5.224914461336993554e-04
-5.365497804277197247e-05
4.130878700152607053e-04
-5.365497804277197247e-05
4.751279371362215898e-04
4.166647418628599553e-04
-5.365497804277197247e-05
-5.365497804277197247e-05
4.525064090898922586e-04
4.064227788376229000e-04
-5.365497804277197247e-05
5.576358167331818549e-04
-5.365497804277197247e-05
-5.365497804277197247e-05
3.819435421519301599e-04
-5.365497804277197247e-05
4.748883397951431107e-04
-5.365497804277197247e-05
3.694145804047366255e-04
5.751772149551470648e-04
-5.365497804277197247e-05
3.956390107191509742e-04
-5.365497802856111775e-05
-5.365497802856111775e-05
4.547560984065057710e-04
4.018011611037763942e-04
-5.365497804277197247e-05
5.380817657965053513e-04
-5.365497804277197247e-05
4.194268640276277438e-04
-5.365497804277197247e-05
-5.365497804277197247e-05
4.190890541053704510e-04
-5.365497804277197247e-05
4.160629809462079720e-04
5.535901856887903705e-04
-9.127337841619009851e-05
-4.312207981342908170e-04
-5.692536637980083469e-04
-5.034595342863212863e-04
-6.917562807302601868e-04
-4.444939315249030187e-04
-3.239694445369423192e-04
-4.503626421978879080e-04
-8.208327962506700715e-04
-6.976202092232597352e-04
-4.484258813590713544e-04
-2.856820117358438438e-04
-2.128381815396096499e-04
-6.299575187540540355e-04
-5.541329904303893272e-04
-3.718178352869472292e-04
-2.905217160105166840e-04
-2.236072039067948936e-04
-2.227693387339968467e-04
-3.525057526303498889e-04
-1.386779883318922657e-04
5.341166814787356998e-05
1.303565625221381197e-06
-3.588852899270023045e-04
6.057565735773096094e-05
4.813753737948900380e-04
4.541241584661293018e-04
-7.145839899180828070e-04
-2.403660313348154887e-04
3.725628777715428441e-04
5.516102493174912524e-04
-1.039580591964295309e-03
-6.983065167105451110e-04
-9.088489969144575298e-05
1.335939655859874620e-04
-1.160837658517266391e-03
-9.420490743536902301e-04
-4.256412124163944100e-04
-3.747155194560036762e-04
-4.508461191221613262e-04
-1.173202198685885378e-03
-9.345111428729069303e-04
-4.704112802187410125e-04
-5.254830139165278524e-04
-8.870280140627073706e-04
-1.161828092506311805e-03
-9.219810680747286824e-04
-4.492928865147405304e-04
-4.150061721475140075e-04
-8.092537156016987865e-04
-1.047769589149538660e-03
-8.923072724087433016e-04
2.806349223760662426e-04
3.676412874824563914e-04
-1.146418696805540094e-03
-9.447311101666855393e-04
-5.544408950868273678e-04
-4.690284231969599205e-04
-6.274432834061371977e-04
-6.996395350142847747e-04
-5.757301919970814197e-04
-3.779297659889380157e-04
5.876057446130289463e-05
2.549879778825925314e-04
5.924180077272467315e-04
1.013065296831427986e-03
1.300940747455570090e-03
3.269898331836884608e-05
-1.060223547710847924e-03
-9.400219148574251449e-04
-7.147159914779876999e-04
-7.507524853735958459e-04
-8.316438249380553316e-04
-6.200767400059703505e-04
-1.470833179837427451e-04
2.961621150916471379e-04
5.976171399311169807e-04
9.442305000106898660e-04
1.497792221186955430e-03
1.629790444269474392e-03
1.365645407361171237e-03
-7.681475509571100702e-04
-2.036598925201360544e-04
-6.080395875187605270e-04
-6.643715612995038100e-04
-7.627098295301948383e-04
-7.732041855774696160e-04
-1.058230189642017649e-03
-1.268391198209428694e-03
-1.025844871833214711e-03
-3.231972945059169433e-04
1.360223848962505144e-03
5.211630021904056775e-04
1.113088087720370822e-03
1.696808475287525653e-03
1.660267494571598945e-03
1.248932999772023322e-03
6.108811377885103866e-04
6.247627321727122762e-04
7.732703181773104006e-05
-2.609202261965037906e-04
-3.211843095982658269e-04
-2.994822689856846409e-04
-2.484605158770136768e-04
-4.647584491976886056e-04
-5.217786405751212442e-04
-1.632135808335988258e-04
-8.358741042115980235e-04
-9.419961655225961294e-04
-5.308030041533129406e-04
-1.155180983118953009e-03
-1.620183860950419330e-03
-1.547806276334995346e-03
-9.342668532212883292e-04
-2.112104687057581032e-05
1.477865810500134103e-03
8.593593004206923069e-04
1.359122372036836168e-03
9.530569738558369863e-04
4.615296891188336303e-04
2.985055760973409633e-05
-2.087987765548859898e-04
9.663836084428112372e-05
2.715318202035632567e-04
5.209706097275557113e-05
4.980481844540918246e-05
-3.968804969645134406e-04
-1.655782716056819481e-04
6.297659638221375644e-07
-6.936961379437889263e-04
-7.799783341511101753e-04
-5.706295385721205093e-04
-1.208519507486016664e-03
-1.668256422192371247e-03
-1.831407841450527485e-03
-1.459512338556123723e-03
-7.198179033025553508e-04
9.995067176760130678e-05
8.162920673271401029e-04
5.383800864819932031e-04
2.343522971841593971e-04
-1.488333617771786521e-05
-1.214030152141276631e-04
-5.244900074785618926e-05
7.262878417009233090e-04
7.176804665505187586e-04
1.513438919005238859e-04
3.442540129867666110e-04
-1.786658471019109129e-04
4.142545975582834217e-05
-3.241628409114127862e-04
-5.050158703170382068e-04
-6.650056057537767629e-04
-1.339847651649961335e-03
-1.708335079911194043e-03
-1.620601848685510049e-03
-1.131365877654388896e-03
-4.923869259982893709e-04
5.421707936648090254e-05
1.049785691975557711e-05
-1.274959214470072766e-05
4.170497732047806494e-05
2.093296822636148136e-04
4.251649644402277772e-04
8.241599931011478475e-04
1.011978306337368849e-03
7.305871791345452948e-04
4.102460843569133431e-05
4.224286316230063676e-04
-6.355468042329448508e-05
-9.148927796331918216e-05
-2.800580049324707943e-04
1.012135418250181829e-04
-6.907042343300417997e-04
-1.198526635448615707e-03
-6.779652516115675098e-04
-1.342690432977633463e-03
-1.133084265802608570e-03
-2.820851943852176191e-04
8.152698387675627600e-05
9.365815287765144603e-06
2.686772868969455885e-04
1.162285173734289856e-03
5.609210488728422206e-04
8.661948385793039051e-04
8.212777022436057450e-04
8.467595902175162337e-04
4.734474916858744109e-04
-7.239415577942054369e-05
3.329172139956426690e-04
-8.829312810121336952e-05
-1.728692092228811816e-04
-1.266916164581743942e-04
1.578669610466931772e-04
-5.405152949151670327e-04
-7.566982525872845144e-04
-3.579351959501764213e-04
-5.500837243630485318e-04
-7.305186983330713701e-04
3.926268828990941984e-05
2.125574397382479219e-04
-1.890022861061879667e-05
2.783119274454293191e-04
1.078353504397000506e-03
4.700072097421070794e-04
8.793826840474139317e-04
1.396461505976276385e-03
1.400089176172514271e-03
1.209287691494864703e-03
5.224394458309689071e-04
4.487201485972036608e-04
2.063993084107096365e-04
-4.842776269242676790e-05
5.473691248880641069e-05
-2.065603171672591998e-04
-2.853135262057548971e-04
7.314862330076721264e-06
-1.235703864495008020e-04
-1.401205832962659770e-04
4.189196499737590784e-05
-4.006950484836124815e-05
5.910806466999929398e-04
6.140775258245412260e-05
6.946773390836824547e-05
5.262758813842083327e-04
9.406740120425638452e-04
1.087303135193451453e-03
1.389930407697193004e-03
1.301180955067593459e-03
1.458114560819012695e-03
9.673439848256748519e-05
6.195415573984064395e-05
2.344510824059398146e-05
2.590377704336788156e-05
1.316495474270595878e-04
-2.844168066644670034e-04
-3.976417452236091776e-04
-2.356384105723918765e-04
6.447793379038557759e-05
2.664331512960416148e-04
4.567100419308189885e-04
5.854836328467172279e-04
1.084909012320167676e-03
1.785305889256960654e-04
4.572458578877558466e-06
3.151512754584473441e-04
6.899496889900547103e-04
1.339380043532401032e-03
1.311143592658936541e-03
1.055949641568076913e-03
-2.702392424112076696e-04
-2.372482196619785100e-04
-1.295337907549765077e-04
3.335296867135184584e-05
2.656970065686437010e-04
-4.784150017371757713e-04
-4.074044196045178978e-04
-5.317752260225461214e-05
6.061148127400883823e-04
9.009156836441434280e-04
1.125344728905020020e-03
1.085661800800608034e-03
2.192587523950351169e-04
2.007418635230351356e-05
1.350139696683072543e-04
4.091145073630286788e-04
9.882225525643661967e-04
7.382163778402173193e-04
3.833446126009221189e-04
-5.083181735585640126e-04
-4.213562844483931258e-04
-2.298727406468970003e-04
4.978485571882629301e-05
-5.512994447940400278e-04
-3.260771399027362349e-04
2.646486677804205101e-05
7.434742935856775148e-04
7.659334890490754333e-04
6.305593800561837270e-04
1.188919618471118156e-04
2.872007161158762756e-05
1.744405370800450328e-04
4.075053497558656090e-04
2.366626328580423433e-04
3.828771440339551191e-04
4.004102135013454244e-05
-5.946533515839291795e-04
-4.942977922723912343e-04
-2.724969668861376704e-04
-4.885437697339511942e-04
-1.138442677302009542e-04
3.950596171193865302e-04
2.691721047085593455e-04
1.376715813989903836e-04
-2.566809939708036836e-06
2.880254731962850201e-05
1.396573692318270332e-04
2.787183893815381452e-05
-2.801470396320837608e-04
-5.526203613044344820e-04
-4.796526527570676990e-04
-3.282952415588624717e-04
3.375559742835321231e-05
-2.536815270559600322e-05
-7.388118797280185390e-05
-7.417528655651040026e-05
-1.192069294120301493e-05
2.400724529820763564e-04
-2.598491792014101520e-04
-3.925032131633088284e-04
-3.791806314552559343e-04
-3.031734991054690909e-06
-2.069208823058943381e-04
-1.054668352935550502e-04
5.143761808312774519e-05
-2.018278706259479804e-04
-2.149830987150380679e-04
4.760880074172746390e-06
-3.661868657900413382e-05
1.704174238739142311e-04
2.088956154011611943e-05
9.444123901403145283e-05
2.007771505532218725e-04
</DataArray>
<DataArray type="Float64" Name="Temperature_@_t=1" Format="ascii">
1.910903389440932187e-02
5.234875764926982811e-03
1.910903389600093760e-02
1.910903389571672051e-02
9.012028104564251407e-03
1.910903389583040735e-02
-7.740088375655318487e-03
1.082845254533992829e-02
1.071287868055037507e-02
1.910903389583040735e-02
1.910903389583040735e-02
1.609845634877160592e-02
1.910903389583040735e-02
1.078623867030614747e-02
1.910903389583040735e-02
8.617775532144378303e-03
2.547871186433070534e-03
1.910903389583040735e-02
7.078528293618546741e-03
1.910903389583040735e-02
5.383959886529510186e-03
-4.356339164388600693e-04
2.547871186433070534e-03
1.910903389583040735e-02
3.930308635972323827e-03
1.910903389583040735e-02
5.023954266590635598e-03
1.037585405495633495e-02
2.547871186433070534e-03
1.910903389583040735e-02
4.811537727334780357e-03
2.229387288480211282e-02
4.508152378491558920e-03
2.547871186433070534e-03
2.547871186968109214e-02
1.281636300852539989e-02
2.547871186433070534e-03
9.101039159276069768e-03
2.547871186968109214e-02
2.071664228731151525e-02
2.547871186433070534e-03
-4.044101678346123663e-03
2.547871184870587058e-02
2.966649384106290199e-02
2.547871186433070534e-03
2.547871186968109214e-02
-1.144213936763094353e-02
3.001779539239635142e-02
2.547871186433070534e-03
4.843642677911930150e-03
1.401329152514563248e-02
3.125845343940625298e-02
2.547871186433070534e-03
2.547871186433070534e-03
3.316799351259192008e-02
2.547871186433070534e-03
-5.690698345631517441e-03
2.547871186433070534e-03
-3.110814969687680787e-03
2.547871186433070534e-03
2.547871186433070534e-03
-4.974489943904814027e-03
1.264194486481073909e-03
2.911070606378984849e-02
2.547871186433070534e-03
2.547871186433070534e-03
2.120685095979979451e-02
5.989013851433355740e-03
2.547871186433070534e-03
-4.879907092430357807e-03
2.547871186433070534e-03
-5.941890302750607589e-03
-4.048642160114468425e-03
-2.320903022626907841e-02
2.547871186433070534e-03
-2.986943879784931255e-02
2.547871186433070534e-03
2.547871186433070534e-03
-2.514308115976859881e-02
2.547871186433070534e-03
2.547871186433070534e-03
3.099390296519288768e-02
2.547871186433070534e-03
-6.227248622053593863e-02
-4.856381118352715021e-02
2.547871186433070534e-03
2.564151161499239606e-02
-1.805015671719445436e-02
2.547871186433070534e-03
2.372598812108606126e-03
2.547871186433070534e-03
-4.711063843257079498e-02
-6.296373420656209419e-02
1.287152219325093938e-02
2.547871186433070534e-03
1.231933438674559511e-04
2.547871186433070534e-03
2.547871186433070534e-03
-8.408500845845878757e-03
1.784394487826546083e-02
-1.962254304810784333e-02
2.547871186433070534e-03
-2.607990107810564950e-02
-4.050130693030951079e-03
2.547871186433070534e-03
-1.615780376559428078e-02
1.544220249741101725e-02
6.595385878313209105e-03
2.547871186433070534e-03
-1.743654617713730204e-02
-4.324668888102678466e-03
7.273311267738336028e-03
-2.016801147486546597e-02
2.547871186433070534e-03
2.547871186433070534e-03
2.547871186433070534e-03
-2.325307323321368358e-02
2.547871186433070534e-03
1.548960971973656342e-03
-4.763003137071564197e-02
-3.166577731826691888e-02
2.547871186433070534e-03
-1.691729717953194267e-02
2.547871186433070534e-03
-2.471004081252203832e-02
-2.786911122147728292e-02
2.547871185534233973e-03
4.283227990811155905e-04
-2.375147453008707998e-02
-6.304525673141370135e-02
-6.548795861095868531e-02
-2.499486571721121209e-02
2.547871186433070534e-03
2.547871186433070534e-03
-2.397876031169943190e-02
-4.602535700527710105e-02
-2.287496312361980699e-02
2.547871186433070534e-03
2.547871186433070534e-03
-2.200355676826859508e-02
-2.598787583621486874e-02
2.547871186433070534e-03
2.547871186433070534e-03
-2.220518581359698373e-02
2.547871186433070534e-03
-2.512696073583242651e-02
2.547871186433070534e-03
-1.992243894851952746e-02
2.547871186433070534e-03
-2.282590156386987701e-02
-2.008623644941565090e-02
2.547871186433070534e-03
2.547871186433070534e-03
-2.173682634533236069e-02
-1.958973505336558674e-02
2.547871186433070534e-03
-2.686880449147821537e-02
2.547871186433070534e-03
2.547871186433070534e-03
-1.841118065762259448e-02
2.547871186433070534e-03
-2.285804934248147902e-02
2.547871186433070534e-03
-1.781641807214384698e-02
-2.774925079737045053e-02
2.547871186433070534e-03
-1.909880142893172206e-02
2.547871185534233973e-03
2.547871185534233973e-03
-2.191985268396479114e-02
-1.940704507856594319e-02
2.547871186433070534e-03
-2.597978063322159414e-02
2.547871186433070534e-03
-2.026560801704846426e-02
2.547871186433070534e-03
2.547871186433070534e-03
-2.022995434251839697e-02
2.547871186433070534e-03
-2.010238747970305440e-02
-2.675330270743359051e-02
4.318201571862800847e-03
2.066485191770084384e-02
2.740391263637320662e-02
2.403927992554599768e-02
3.321263196599488765e-02
2.115297248519709683e-02
1.532595114383639157e-02
2.169616378202476881e-02
3.944677972924637288e-02
3.337748774021065401e-02
2.131980855568826883e-02
1.348516064916793766e-02
9.983330553495761706e-03
3.021809344039638745e-02
2.637683756253750289e-02
1.755933494317218901e-02
1.372885471946005964e-02
1.051795921759435259e-02
1.043694561332131343e-02
1.693370661536164334e-02
6.352926490990284947e-03
-2.993972996648608387e-03
-3.574982357292810775e-04
1.753061395805843858e-02
-2.958027992264078421e-03
-2.341259218465552294e-02
-2.204764578848994461e-02
3.488234514546206810e-02
1.193403540557369524e-02
-1.770151413441567456e-02
-2.641371321661267757e-02
5.035445571414243204e-02
3.398942508255231587e-02
4.877387862109117123e-03
-5.826199366708806338e-03
5.579118717773212666e-02
4.532186386876446704e-02
2.072454756844877011e-02
1.873408180151159286e-02
2.236096464878301049e-02
5.598670481538192689e-02
4.443781230429522111e-02
2.233505944036551227e-02
2.561645423938330168e-02
4.334522752654379474e-02
5.508736417979775979e-02
4.338219656290220883e-02
2.084096986840222598e-02
1.975982052385916177e-02
3.918134782043125597e-02
5.066771297330774360e-02
4.296830698262965598e-02
-1.291633191107166567e-02
-1.700402208032869567e-02
5.424335193981733028e-02
4.418472281551544256e-02
2.553084745699152336e-02
2.195103419256838606e-02
2.997465711439417646e-02
3.343489703451041350e-02
2.731679373164297431e-02
1.788890051238922752e-02
-2.882216043730068122e-03
-1.203756098425401433e-02
-2.807469592502798150e-02
-4.811462432664370681e-02
-6.183150924960045813e-02
-1.578922557413875438e-03
5.035237132250358627e-02
4.401712949069747083e-02
3.309813391274474270e-02
3.525142362519773087e-02
3.950854859925811979e-02
2.929806208874197182e-02
6.322151930646668916e-03
-1.502715513592534080e-02
-2.923643705480571953e-02
-4.541940542588918106e-02
-7.161635845170621906e-02
-7.761138372870846069e-02
-6.467440486244413478e-02
3.664564211723586595e-02
9.816174327553994772e-03
2.932446135646671337e-02
3.195570175506645683e-02
3.595994453178263939e-02
3.620177869163399009e-02
5.006597386494604507e-02
6.035588312198569838e-02
4.863012928575471960e-02
1.464690304266014209e-02
-6.577024516730034520e-02
-2.600858627920388244e-02
-5.425550419886349118e-02
-8.151317151629200453e-02
-7.919972906444172622e-02
-5.909419150839312351e-02
-2.841700233267374642e-02
-2.905661369447898323e-02
-2.974990772543151252e-03
1.232602471071686523e-02
1.520155873663497914e-02
1.406794661502885901e-02
1.154651597630618198e-02
2.190059777527153528e-02
2.511749237478966279e-02
7.789229081183179915e-03
3.996664865076127171e-02
4.528972917759688244e-02
2.513990665573828664e-02
5.526573476231533277e-02
7.739720225504242990e-02
7.363570865277324629e-02
4.391053017377544165e-02
1.384562602879668702e-05
-7.134971961022529285e-02
-4.203688282683515354e-02
-6.507766591471408901e-02
-4.515141683174306309e-02
-2.142599729950234178e-02
-7.953649993055478262e-04
1.056142505831303424e-02
-5.123759834390284595e-03
-1.337533382144329153e-02
-2.526852813105051609e-03
-3.077495764017612601e-03
1.850039379007739626e-02
7.850715496218185763e-03
-1.769587844080433570e-04
3.326465877290729622e-02
3.719128846756802886e-02
2.769315242176162428e-02
5.841687470956458128e-02
8.015114133746692460e-02
8.746930243142969630e-02
6.913246404667461320e-02
3.346944384924199767e-02
-5.639962232635298278e-03
-3.951456771687844594e-02
-2.576021794021698952e-02
-1.089502702035360926e-02
1.159751222360227985e-03
6.334182014768430236e-03
3.120543829254529555e-03
-3.557973342012132889e-02
-3.463979733066935296e-02
-6.849109787538054661e-03
-1.736677316281998174e-02
7.956681451133817973e-03
-2.145020043144540978e-03
1.541708515145501224e-02
2.393514527446427564e-02
3.264371640767649296e-02
6.488813619148459111e-02
8.204583628725004019e-02
7.717150335503220049e-02
5.327394809381758023e-02
2.267560790949119109e-02
-3.115395623638050893e-03
-6.312628459568259132e-04
8.135058156426566711e-04
-1.546931761026826280e-03
-9.391388752817420027e-03
-1.962987730433951583e-02
-4.035578596125333206e-02
-4.907977530587004367e-02
-3.491767227637865290e-02
-1.283452834229592554e-03
-2.101330965666647899e-02
2.561723763534473619e-03
4.258743505189954703e-03
1.321339508848495825e-02
-4.950793752570348261e-03
3.395250156495421834e-02
5.798689117455069209e-02
3.167530804171292402e-02
6.430967708269008654e-02
5.369867775635839280e-02
1.294322551984805614e-02
-3.566347878518172365e-03
-5.285447575147372845e-04
-1.255587298987848044e-02
-5.503116062044455248e-02
-2.629562995849710205e-02
-4.080992726142085303e-02
-3.997317164805735956e-02
-4.076710380127224198e-02
-2.233256327093613436e-02
4.137281615271604096e-03
-1.642594993629131750e-02
4.012678845953132623e-03
8.217840682249288875e-03
6.133873046906046511e-03
-7.614483677016892216e-03
2.648920061659509884e-02
3.646381817156907346e-02
1.658529379039919149e-02
2.583817537487220761e-02
3.476636634650276392e-02
-2.162617932697230572e-03
-9.980223425188228248e-03
1.406232786877126273e-03
-1.281269913135929528e-02
-5.130869303178542395e-02
-2.242987975438381909e-02
-4.176560511632487760e-02
-6.652481843423174723e-02
-6.661123560775195074e-02
-5.745465899968849044e-02
-2.526457458097297604e-02
-2.137772466167575658e-02
-9.503427770710004552e-03
2.737477087009665411e-03
-2.702481275264290161e-03
9.962939981619456375e-03
1.389774643573105095e-02
-2.749651305862244044e-04
6.060389436299828958e-03
6.557787698966421885e-03
-2.382054443444303615e-03
1.570997673582041898e-03
-2.848232933706640324e-02
-2.578471127364423410e-03
-2.790296428372585069e-03
-2.476126567830760905e-02
-4.472445895024179663e-02
-5.204645099684057641e-02
-6.641910717712562473e-02
-6.207020870982660199e-02
-6.962775361779449668e-02
-4.511615238158128705e-03
-2.699385599157722027e-03
-8.523693765027928748e-04
-1.094628232635841414e-03
-6.407621541939079179e-03
1.388381635018731686e-02
1.939260827424504896e-02
1.153660230227160355e-02
-3.012873194563780999e-03
-1.303741331702212847e-02
-2.227944959810201908e-02
-2.840350407041114522e-02
-5.225051697243543458e-02
-8.326386694932352839e-03
2.683745268257098360e-04
-1.462333938016513457e-02
-3.271705909298816550e-02
-6.433730940830173495e-02
-6.280540139476897821e-02
-5.041347468343815308e-02
1.327744517990936401e-02
1.165569788008724572e-02
6.336800174466361568e-03
-1.692811827808782255e-03
-1.304199524847149405e-02
2.332473336716134327e-02
1.987530618913524449e-02
2.700435459544792138e-03
-2.951833041038298688e-02
-4.363247682618975887e-02
-5.430456682967133020e-02
-5.229120075324544814e-02
-1.033272930744999485e-02
-5.658720238841397077e-04
-6.000818165063037668e-03
-1.926886000867966686e-02
-4.744867203510239051e-02
-3.525400628092256738e-02
-1.877061738375118694e-02
2.474482068274141966e-02
2.043480977911826812e-02
1.103381334377218081e-02
-2.608317689578143472e-03
2.682426505384682969e-02
1.591500968127945725e-02
-1.171371658600151022e-03
-3.608588377602472974e-02
-3.700556463633120075e-02
-3.033082497771033559e-02
-5.454982332423696789e-03
-9.628839125070953742e-04
-8.053677866655561957e-03
-1.941953883940072956e-02
-1.123954079065470069e-02
-1.870047088931414692e-02
-2.143297855667469776e-03
2.884701651538534861e-02
2.387556433032500536e-02
1.303273941107363498e-02
2.373616446388382428e-02
5.603490966308299903e-03
-1.919784897108911537e-02
-1.297865015069987749e-02
-6.493613286380650607e-03
4.313339511838876206e-04
-1.129968299522943198e-03
-6.549654747701083579e-03
-1.501935068858983868e-03
1.341443707227085724e-02
2.675613132197440791e-02
2.313372613116371213e-02
1.594397939936698094e-02
-1.568705802313274944e-03
1.182879904291667117e-03
3.648086148530182982e-03
3.757896031629570643e-03
8.004660395215523749e-04
-1.146631936035191757e-02
1.249827807654924072e-02
1.893765049788953547e-02
1.835377430413132060e-02
1.920642471873179602e-04
1.002783523554739986e-02
5.199527827812744363e-03
-2.345720058940514718e-03
9.771620487754262285e-03
1.040776760564199321e-02
-2.023175310768010604e-04
1.826907312064918187e-03
-8.158496589686592415e-03
-9.873249550054197243e-04
-4.544816488319725067e-03
-9.676986324237191184e-03
</DataArray>
<DataArray type="Float64" Name="Temperature_@_t=2" Format="ascii">
-9.419079062158175475e-02
-2.443756314814038433e-02
-9.419079062462287766e-02
-9.419079062482182962e-02
-4.340340577002166356e-02
-9.419079062473656450e-02
4.160317468479490799e-02
-5.337478136252116201e-02
-5.160304915455071750e-02
-9.419079062473656450e-02
-9.419079062473656450e-02
-7.956781152182657024e-02
-9.419079062473656450e-02
-5.182762701807064332e-02
-9.419079062473656450e-02
-4.064951965597174421e-02
-1.255877208413025414e-02
-9.419079062473656450e-02
-3.280457333812591969e-02
-9.419079062473656450e-02
-2.422538921916839172e-02
2.605101735326798007e-03
-1.255877208413025414e-02
-9.419079062473656450e-02
-1.684301919519270996e-02
-9.419079062473656450e-02
-2.241977361660474344e-02
-5.266591733038694656e-02
-1.255877208413025414e-02
-9.419079062473656450e-02
-2.100621685690384766e-02
-1.098892557407964432e-01
-2.388924397359915019e-02
-1.255877208413025414e-02
-1.255877208504045939e-01
-6.819524045158686931e-02
-1.255877208413025414e-02
-4.384565628322434350e-02
-1.255877208504045939e-01
-1.082582212441565161e-01
-1.255877208413025414e-02
2.223161342854496070e-02
-1.255877208124331901e-01
-1.519436458861633810e-01
-1.255877208413025414e-02
-1.255877208504045939e-01
5.668305287423436312e-02
-1.510628042120174541e-01
-1.255877208413025414e-02
-2.740875716395407835e-02
-6.907324646155643677e-02
-1.548626368724370650e-01
-1.255877208413025414e-02
-1.255877208413025414e-02
-1.720622406597840381e-01
-1.255877208413025414e-02
2.439669260387233862e-02
-1.255877208413025414e-02
1.105329935020904486e-02
-1.255877208413025414e-02
-1.255877208413025414e-02
2.126285803257133011e-02
-1.181431946700683966e-02
-1.425705509611390198e-01
-1.255877208413025414e-02
-1.255877208413025414e-02
-1.076505381854673260e-01
-3.011903472209098709e-02
-1.255877208413025414e-02
2.345133058288695338e-02
-1.255877208413025414e-02
2.640005884641993816e-02
1.366692846821138119e-02
1.106401004787755937e-01
-1.255877208413025414e-02
1.528939070097550257e-01
-1.255877208413025414e-02
-1.255877208413025414e-02
1.287008639066726801e-01
-1.255877208413025414e-02
-1.255877208413025414e-02
-1.525516842996523792e-01
-1.255877208413025414e-02
3.074181981486390214e-01
2.387482186400688988e-01
-1.255877208413025414e-02
-1.279531006831149398e-01
9.246812330572140581e-02
-1.255877208413025414e-02
-1.189382390676030354e-02
-1.255877208413025414e-02
2.282429749018319853e-01
3.090566781057759727e-01
-6.437353166224113465e-02
-1.255877208413025414e-02
1.356667971549541107e-03
-1.255877208413025414e-02
-1.255877208413025414e-02
4.338117013661957344e-02
-8.828328832316856278e-02
1.008506902357595436e-01
-1.255877208413025414e-02
1.222130714611466829e-01
1.276412900267587247e-02
-1.255877208413025414e-02
8.336681734226658591e-02
-8.264664580804037541e-02
-3.956027990659549687e-02
-1.255877208413025414e-02
9.005296060944800729e-02
1.476071841074144686e-02
-4.242942359962853516e-02
1.040119841376636600e-01
-1.255877208413025414e-02
-1.255877208413025414e-02
-1.255877208413025414e-02
1.173608626000444133e-01
-1.255877208413025414e-02
-1.274423907067046002e-02
2.318801735198690039e-01
1.511426033517864198e-01
-1.255877208413025414e-02
8.731956957957720533e-02
-1.255877208413025414e-02
1.249599738351179212e-01
1.414374103575681829e-01
-1.255877208200573136e-02
-7.909329514831142660e-03
1.144067774263248793e-01
3.125002460932080339e-01
3.239210131406764503e-01
1.282649748919553190e-01
-1.255877208413025414e-02
-1.255877208413025414e-02
1.211458726638738881e-01
2.272621434198924817e-01
1.171659962254807397e-01
-1.255877208413025414e-02
-1.255877208413025414e-02
1.108541759746941580e-01
1.316647544311067008e-01
-1.255877208413025414e-02
-1.255877208413025414e-02
1.134270428242984963e-01
-1.255877208413025414e-02
1.272209227130858267e-01
-1.255877208413025414e-02
1.014599073756130565e-01
-1.255877208413025414e-02
1.153180400711377729e-01