<?xml version="1.0" encoding="UTF-8"?>
<VTKFile type="UnstructuredGrid" version="0.1" byte_order="LittleEndian">
<UnstructuredGrid>
<Piece NumberOfPoints="504" NumberOfCells="911">
<PointData>
<DataArray type="Float64" Name="Temperature_@_t=0" Format="ascii">
150
273.16479555017844
150
150
273.17880962860806
150
273.18380018566495
84.99999999999999
273.1827250313269
150
150
273.1519032838214
150
273.16614433703666
150
273.16999728574984
20
150
273.16737776553674
150
273.1671866649965
273.1770475050706
20
150
273.1717633858364
150
273.1581871402969
273.15904480696423
20
150
273.17259959795825
174.99999999999997
273.1581281690703
20
200.00000000000003
273.15641675168496
20
273.1514002210725
200.00000000000003
273.1581207246673
20
273.1518154217694
200.00000000000003
273.1568357155918
20
200.00000000000003
273.15130678993665
273.1574480432812
20
273.1575857962155
110
273.1564366951972
20
20
273.1544762625286
20
273.15615370877896
20
273.15480439758363
20
20
273.1623817150485
273.1497466400527
273.15701210803485
20
20
273.15538283038546
273.1559510470458
20
273.15762403092253
20
273.1539295269729
273.1519710948331
273.1502026936323
20
273.2112628952818
20
20
273.220651661143
20
20
273.1557589573003
20
273.15008235440615
273.1502635183529
20
273.15551041463294
273.19035976823193
20
273.1797838536776
20
273.15001846934734
273.15003065517425
273.1549621331651
20
273.1608618894829
20
20
273.1573762043274
273.1567061659955
273.2470411660301
20
273.15000337199604
273.15000152388563
20
273.18922793501457
273.1500001526774
273.1500007249078
20
273.1935293647766
273.14999999273033
273.15000000775717
273.20818489649633
20
20
20
273.20818893327765
20
273.132008662503
273.14999937681574
273.149998927598
20
273.15905179588236
20
273.1850349460771
273.2401437538262
20
273.149750928737
273.1494570195899
273.14996022791047
273.14999378402285
273.23441263993874
20
20
273.1790684242072
273.15000769371477
273.19164981404305
20
20
273.1665281177898
273.2175136833448
20
20
273.1975778435401
20
273.1953739057162
20
273.1884023229996
20
273.181405538708
273.19850656525983
20
20
273.16822746076446
273.2008747549059
20
273.23877138523505
20
20
273.19677384856055
20
273.1667389598519
20
273.1938219641259
273.2510426820423
20
273.2043550863305
20
20
273.1649915413686
273.1979190630373
20
273.236005762111
20
273.2022077250787
20
20
273.1625196685854
20
273.17955513006183
273.271181789867
273.1545118311578
273.15546644343254
273.1549645390168
273.15543925246544
273.15059322274624
273.15366404899027
273.15447725007607
273.14865982501743
273.15029081389554
273.1505566803205
273.15087983781376
273.15314878783937
273.1537894735816
273.1510256591914
273.1500896425188
273.1502164659335
273.15068319850616
273.1536246223414
273.16005134821467
273.15183902822633
273.15033268799056
273.1501656109651
273.1506168732637
273.1517114298726
273.1503372384496
273.1501486277966
273.1505693659387
273.1517209668768
273.1503420355835
273.1501519426377
273.15022215019707
273.151810882985
273.1503388539573
273.1501933148166
273.1514727993804
273.15181625701985
273.15029955990786
273.15008856484377
273.1501417781141
273.15322315825455
273.15168902979616
273.15031781749434
273.15006375674005
273.15011466441774
273.15119921633413
273.1516362646996
273.1503021513868
273.1500601476659
273.1500408175096
273.15012604122035
273.15008592703185
273.15192943497334
273.1517919104566
273.1512499736429
273.1515681037585
273.1503130841889
273.1500578397408
273.1500142812579
273.15000927006616
273.15003434147457
273.1503928076788
273.1512273179799
273.15155049462373
273.1520349291948
273.1500478356195
273.1503543241992
273.1500912641086
273.1550519404564
273.1514644166826
273.150295144467
273.15005700379265
273.1500109531252
273.15000320445324
273.1500105668842
273.1500404238214
273.1500891500443
273.1503289190345
273.15033213059814
273.1500559257699
273.1500396704207
273.1500096397301
273.1516667610194
273.15977523643215
273.1559412985728
273.1482832005795
273.15028947954346
273.15005028092486
273.1500099387324
273.1500022933124
273.15000175692484
273.15000323264934
273.15007642891516
273.1500102103792
273.1500414297919
273.1500191644828
273.1500152715687
273.1500042345821
273.15000147394153
273.1500039716694
273.15000043952944
273.1525867803258
273.150122039154
273.1501858692213
273.152466533889
273.1502704208726
273.1506280533956
273.166298100309
273.1511361760717
273.15052598769677
273.15005044483127
273.15000940511527
273.150002029562
273.1500004866337
273.15000042217247
273.15000143807134
273.1500143638348
273.1500043235355
273.1500023485007
273.15000194548026
273.1500005543215
273.1500001811503
273.1500001353366
273.15053200160065
273.15005405390576
273.15001340208613
273.15024190664263
273.1501886291513
273.1589784411845
273.1623967657389
273.15141085954355
273.150106982714
273.15000680641833
273.15000235896304
273.1500005480394
273.1500002706184
273.15000011517674
273.15000018335735
273.150000526346
273.1500017193304
273.15000059622247
273.15000019570266
273.15000007310647
273.15000002113396
273.1499999923522
273.15007241295956
273.15001816263606
273.15000241325555
273.1500323661117
273.1500660884058
273.1624813963666
273.1521947067154
273.15030340384334
273.1500006660649
273.1500003806368
273.15000006056084
273.150000030209
273.1500000287446
273.1500000690066
273.15000017754295
273.15000009279464
273.1500000252025
273.15000001016773
273.14999999899834
273.1499998246979
273.15001337125557
273.15000403940326
273.15000247738226
273.15000058819413
273.15001697640565
273.1500766764952
273.150719504622
273.1503775895869
273.1638032416613
273.15000011890817
273.1500000404331
273.1500000097219
273.1500000119481
273.15000000543347
273.15000002354435
273.16042253385604
273.1500000120229
273.1500000083851
273.149999885819
273.1500000164337
273.150000049895
273.1500046645346
273.1500008199304
273.15000031125004
273.1500001256658
273.15001477550845
273.15006776742206
273.15088139742016
273.15301914565174
273.1619996763617
273.15000003472056
273.15000000741526
273.1500000034789
273.1500000018248
273.1500000027526
273.1500000051533
273.16567882830844
273.1519965271072
273.14994679732825
273.15000681365353
273.15000001016284
273.1500000432057
273.1500010318338
273.15000036980535
273.1500001405644
273.1500033974726
273.1500012714246
273.15000038758177
273.15000010671787
273.15003734028664
273.1504253856411
273.1505861429917
273.1584382918079
273.1500000241492
273.15000000524265
273.1500000026015
273.1500000031019
273.1500000123679
273.15554394062013
273.1504657683857
273.1500267974097
273.1500164949104
273.15000006656595
273.150000300564
273.1500046930098
273.1500012633674
273.1500116965943
273.15000270121385
273.1500006835959
273.15000020765564
273.1500000896035
273.15007968431195
273.15047155480926
273.153261180381
273.1611908576233
273.1500000294182
273.1500000183105
273.1500000101082
273.15000004938196
273.16028551388405
273.15125507764856
273.15014858814953
273.1500427630815
273.1500004820093
273.1500019098184
273.1500101365281
273.15001586399643
273.15000387518563
273.15000202000823
273.1500006225271
273.1500002333266
273.150093398564
273.1506304511544
273.15899389331526
273.1500000985964
273.15000008635275
273.1500003734787
273.15000141432813
273.159439353475
273.15227771725614
273.15035470259323
273.1500688880912
273.15000514205536
273.1500149570606
273.15000074695246
273.15003279346826
273.15001686102454
273.15000506252846
273.1500019899886
273.15037960125886
273.1531791450562
273.1621989612708
273.1500006192642
273.15000291041446
273.15000730896236
273.1553666319555
273.1504867267341
273.15016481906144
273.1500349481236
273.16500664842425
273.15000341308865
273.150006802872
273.15009892397535
273.1500516550295
273.1500139415994
273.1505926188874
273.15840728532856
273.1500072428383
273.1500203734358
273.1500676603894
273.1514574138492
273.1501361666651
273.15215548187047
273.15002086569103
273.15005886433715
273.15044518352755
273.1501226433911
273.1528433312921
273.16202552498703
273.1500746868839
273.15010537039467
273.150599547368
273.1515359100635
273.1710644558763
273.1501308683856
273.1503728737426
273.1514843017489
273.1600205316458
273.1505889107212
273.1513136314449
273.1519494820123
273.15230969168266
273.15134168087906
273.1604222815211
273.15180134235305
273.16827374823373
273.1519198492577
273.16603167952
273.1715983649315
</DataArray>
<DataArray type="Float64" Name="Temperature_@_t=0.2" Format="ascii">
150
177.93362263969132
150
150
186.33493862360967
150
137.06545144320992
84.99999999999999
190.02693381731942
150
150
204.59489780648465
150
194.0398471996615
150
193.5994904500598
20
150
195.4420327328332
150
194.78189540091878
158.17231004954726
20
150
191.1440807033055
150
197.89623401474998
207.64040706399916
20
150
187.3991374546025
174.99999999999997
204.8310224941338
20
200.00000000000003
212.30638350064245
20
253.22263643384738
200.00000000000003
202.39102097923708
20
255.45707252469182
200.00000000000003
208.5357013555496
20
200.00000000000003
257.4365156709441
206.098998997292
20
239.45334844610542
110
211.5473300865605
20
20
226.23496624180711
20
217.6606909527279
20
218.7481883154983
20
20
200.58809283828353
237.904588031724
210.19816485720207
20
20
221.1030337540868
216.65790444284895
20
211.22728904722217
20
229.92724355125327
266.913163977051
272.3370173911163
20
62.917859899411845
20
20
76.93775490819571
20
20
218.96333803283483
20
273.1323262746175
272.9293388751089
20
220.80720010517686
96.01879993055955
20
155.22198087908458
20
273.14970142903644
273.14257325079734
220.53324314779863
20
198.4061394646305
20
20
121.47860591284346
224.26731915096428
88.46681329236426
20
273.15000235487366
273.15001717691905
20
102.20953352350547
273.149997617653
273.15002666661945
20
104.50926652884077
273.1499624076655
273.14999372736906
102.3084174253633
20
20
20
109.42209524569648
20
239.17040062505188
273.14911883976833
273.14976445170896
20
123.92031533593692
20
102.53767033484407
87.7068312862918
20
260.2696611194007
271.9083368498172
273.1251972079679
273.14333283123636
92.96166308680158
20
20
106.69062184206349
273.020186943335
102.09542006209323
20
20
116.76214929619438
97.78351312827691
20
20
102.3084942532039
20
102.28322991037238
20
107.06930478767526
20
113.73986766936683
102.31572861828984
20
20
118.84369107730099
100.82631096943174
20
93.34858545752962
20
20
102.94908141026043
20
111.67865295346925
20
104.61098838935395
87.10691725619546
20
101.09356686623956
20
20
112.15196231015726
102.003041364234
20
91.20520501345503
20
101.70360541050671
20
20
112.86461431973842
20
106.07279712046524
82.6298180934245
176.59862968497046
220.54169089470062
236.32845941795532
229.42156503682233
248.86608299204906
233.7028403379064
226.32256646614852
223.2766341370582
265.4909415211773
263.12803925537014
255.60112570746082
233.6485694011033
227.69915514137114
266.1589658540077
272.1833220975334
270.90913705126536
262.1801455194815
239.95248707726407
225.48335366698376
264.3017511668695
272.6427757679832
272.9274791495361
271.05255409984306
263.23485899424077
272.59062914315206
273.03410507893847
271.4975372361884
264.2501798529574
272.57145013525343
272.99851029521255
272.0511740335039
265.2160345288285
272.5759481781865
272.9521986108975
269.0384620087811
265.8602068361568
272.55075264735177
273.08758876929915
271.7535353910098
249.1198945894121
266.27044801269943
272.70132874673897
273.12103385618326
272.97755523382307
268.51672497084365
267.41941731506876
272.7830399862989
273.1320317423856
273.1384418106456
272.9673618045067
271.63977044170514
266.22065518404963
267.580448534251
270.6948532896885
267.95318676983203
272.8460340836228
273.1361451732842
273.1490176213626
273.14550105718007
273.0996040102484
272.8995011353615
270.1697984566213
267.6075936501186
267.15065795816724
271.8203909667404
272.9694924423127
273.0962859802601
150.51120762800238
268.7671347881406
272.9050872815728
273.1394028115206
273.14947954198584
273.1498509781495
273.14892465102304
273.14261424847314
273.0730681453196
272.92540137150075
272.87143005551957
273.1126299066722
273.1439617995539
273.1482879765975
269.80109594763593
175.87070660949107
224.32465921361572
229.26640145208566
272.9533801987665
273.1425189415489
273.14969618638
273.14993580510003
273.149955791645
273.14989861520843
273.13383274317874
273.1480691654778
273.14271350157
273.1446705739543
273.149363226768
273.1500649430105
273.15000062045266
273.1500698591188
273.15000200284476
257.95599783343727
271.1223544632656
272.9991039478293
262.27267089050014
267.93178250703335
212.19247725598976
169.77053354775492
265.878940953689
258.10066166964947
273.1440567782406
273.14980772622744
273.14995155882957
273.1499921006269
273.1499895304284
273.1499768370464
273.1493595825696
273.1499109193312
273.149960782739
273.1499710522757
273.1499963799892
273.1499977151437
273.1499979843939
272.08424266628714
273.0642753579266
273.14563979192434
272.4224541327025
272.3714008681778
181.77502333716464
169.2535645702211
243.95719237167938
269.6726671137142
273.14971292428413
273.14996519448414
273.14998235930096
273.1499967711638
273.1499994746436
273.149998555344
273.14999234243595
273.1499491693405
273.14999615858454
273.14999641154276
273.1499992561954
273.149999732087
273.1499994470347
273.1010118072383
273.14685680692486
273.14979460003383
273.06699236884197
272.37768008109066
173.4565764675953
226.92820006441656
265.52010734605443
273.14997871458354
273.14999995223843
273.14999916698883
273.1500001213082
273.1500000736982
273.14999958477034
273.1499964501513
273.1499999491388
273.14999990523575
273.1499998009142
273.14999889985415
273.1499892173779
273.1310867374494
273.1466883345351
273.14945399599884
273.14990492744295
272.93592286985114
270.9469489521893
210.63015169136153
256.95195731027064
179.32690028690922
273.1499835163564
273.1499970433565
273.1500000150782
273.14999942471945
273.1499999216933
273.14999992165707
207.48273824943797
273.1499999309286
273.1499990672319
273.1496555877739
273.14999410622045
273.149961837652
273.1037168359608
273.1406903255688
273.14805914547
273.1496123585705
272.53940132867865
267.6409230515771
243.42351850260047
225.39983520395484
165.29549386607633
273.1499226086772
273.1499823469781
273.149999852118
273.14999939523165
273.14999709364514
273.149999300776
174.81711210164892
247.22658844164923
270.6390206976046
273.0774371570641
273.14999538203534
273.149970266033
273.141667186064
273.14887299804974
273.1498213046434
273.0034258144721
273.1160398747533
273.1425320489936
273.14833102152403
271.44986722321755
261.06232583179485
247.1069671519992
187.79774565470964
273.14947807229356
273.14993006028794
273.14999670912084
273.1499849919747
273.1499804847112
215.79135723323134
264.28559202851307
272.22833409892695
272.96850037917017
273.149849088351
273.14912744123643
273.12073447275
273.14498142252336
272.68898659187965
273.0373589228928
273.1210553531732
273.1410293680824
273.1446082173556
268.0206805443617
253.9129623923312
221.75884248107312
168.3161076467764
273.1485624496292
273.1496628434322
273.1499206508065
273.1495377422953
185.96607343894613
252.39544812117038
270.6158958435332
272.59167535165665
273.1451465509794
273.1273926250046
273.03443175574597
271.9270925310359
272.7830730674777
273.0315568025983
273.09903889149456
273.1265223888972
264.7514823745427
239.8320938682493
181.34161023643514
273.1434585027171
273.14816480372434
273.1414670584306
273.1157516307704
176.27028553982714
235.71068831136003
266.44673728618835
271.381216914518
273.0458551546208
272.7327490547494
273.07790244966026
269.9610899120167
272.0329587544213
272.72099794337277
272.96844868655626
255.8636893756675
218.57909019067628
162.92142026623873
273.11187813903376
273.02742029384336
272.76511753346114
202.52318509337653
257.5500283260529
268.27568896500634
271.79991967876964
170.31896822605952
272.94928912900036
272.6533331871106
265.63701376654166
270.1660552661064
271.8956792269624
240.67099938208958
183.17986309885333
272.7497693431664
271.88574105919946
269.57980775431696
240.62769894771944
263.48239270726987
192.10456146860665
271.99888726885723
270.00584430704134
256.76845200703275
265.74458246091143
218.0883424827974
160.41034345068107
269.95711983137835
264.64656363539467
253.33369595257508
232.38139262746702
164.5696438808922
265.45065930383635
256.27103645167387
234.06419792580073
168.93961024455487
255.39511808948302
236.47282495729362
204.8371841952057
214.71342007979368
230.98167078450825
172.59200320717264
206.90338751700133
170.50774290907327
180.01094185613272
161.79991918138973
152.04673012317906
</DataArray>
<DataArray type="Float64" Name="Temperature_@_t=0.4" Format="ascii">
150
153.78929279427064
150
150
166.11819468428186
150
120.43607958858085
84.99999999999999
176.36540195842252
150
150
182.3854068791454
150
180.5556628575425
150
180.77897927227113
20
150
181.9916398533184
150
180.95822629500245
118.17654650482673
20
150
177.8255619807833
150
183.005320638666
164.89813506604023
20
150
178.6811800284158
174.99999999999997
162.88884209569935
20
200.00000000000003
170.08626720634894
20
233.94986881386916
200.00000000000003
160.51741523958978
20
242.60388547020793
200.00000000000003
166.37791260074994
20
200.00000000000003
244.8144837070511
164.08021498391756
20
226.28573621083288
110
169.36519956622877
20
20
194.57912704582228
20
175.5822887491147
20
176.52765767609742
20
20
158.98618367042636
197.02688911279571
168.0760413607508
20
20
180.34654400277955
174.48503542003866
20
169.22215331407116
20
188.45943838802867
242.83803737149847
264.0612245671704
20
42.68061403089633
20
20
51.77874765019935
20
20
176.90416014052144
20
272.63396441174467
270.76869627197215
20
178.8922659843512
65.91903917923399
20
106.55770041618807
20
273.12581362489703
273.02924133323444
178.26122354295055
20
156.99070801597372
20
20
86.99175903387506
180.9756072711613
66.5934631982487
20
273.1449033842626
273.14887024893466
20
77.70443264335535
273.1499141621756
273.1496497374317
20
80.17520256952601
273.14885070422815
273.14971659107863
78.88647581207523
20
20
20
84.16687448910288
20
197.7063312702688
273.12208443106823
273.142410794922
20
95.14778834102745
20
79.18562209854296
68.36464461723904
20
229.5316998119991
263.9252773900388
272.5735072152836
272.94765245463844
72.19077018086442
20
20
82.32545225990732
270.4242897930899
78.89723141201291
20
20
89.83510800310229
75.74294563044776
20
20
79.0595993105526
20
79.05816500870641
20
82.57682393255705
20
87.55762231322
79.06423892854265
20
20
91.37470126592427
77.96656123994791
20
72.48823342036667
20
20
79.53201415062706
20
86.00700883934304
20
80.75698628295264
67.93263084807644
20
78.16159534526024
20
20
86.36103633448091
78.83244776075709
20
70.91700338516983
20
78.61171838482079
20
20
86.89177655869686
20
81.83859213794119
64.67971515800767
135.18392796104357
181.4295298860302
188.97986494557082
205.69815643750158
214.72193846902243
212.07414218185224
206.11300638562938
177.8170454838502
235.46970716535884
241.80531466040065
234.34142319857628
211.72316666505074
205.39998081873688
239.92121221503524
261.62022052172614
259.6232409644819
240.91175942081438
215.36727049885295
207.35965588805348
237.34671182868536
265.365153351255
269.021803081873
260.81596844699783
235.35352586535973
265.55180611232186
270.50728804737565
264.65050369826463
237.55774811863458
265.52625114186145
270.5866777210885
266.11220405408125
239.74708468592033
265.52494214612267
270.70001985987875
259.124032987304
241.21262016001995
265.0450307836664
271.74420305972905
264.62756605792305
230.52250283170932
242.0285417423273
266.71273708543845
272.2919090857782
270.9581031142646
256.2435043764761
244.89315585683872
267.67151995377145
272.5284113069313
272.8708812936538
270.8934507528166
261.5342816415701
243.77717020654185
244.76346415644971
255.97390478960398
246.19116283066185
268.32658715853034
272.621707183258
273.08649311057457
272.9856501631644
272.138988879138
268.7617476783894
253.6089300086073
245.0775412783266
243.8886313883598
259.36105076507846
268.78007494428783
271.96893778798716
96.83757960044282
248.31328849194713
269.0747339750498
272.68746888164355
273.10748541478216
273.136918086911
273.0833923984399
272.80713969739855
271.672560302967
268.98294178410293
268.1816455327706
271.9168482521164
272.8562726483695
273.0979860590182
251.76569728676256
121.15358731135125
161.69574069906136
177.12270847332795
269.5207537252898
272.7440802612743
273.1152670713304
273.14644343270226
273.14590041226484
273.1288232081297
272.3284720911423
273.0537021573668
272.8015100155762
272.8482505288027
273.08176728645975
273.1351987978799
273.1474384753214
273.14440525119767
273.1495856345776
225.75332898588871
256.31550840545293
270.29166927170445
233.24048965250623
244.13462579067
158.76405020189813
127.26559595295545
235.00234201474976
212.7011162259847
272.79497907714955
273.1224916057424
273.14745527156634
273.14955074354816
273.1487675101902
273.14447557891884
273.07837292495054
273.12922039906795
273.13431174071735
273.14652079975446
273.1492229055863
273.1498343149788
273.1499488927534
261.37531488180053
270.7337240104985
272.8070666970686
262.5829486016951
260.11492068691365
140.10017409889142
130.55025611879867
200.7028761845056
246.94311761894144
273.10867494918193
273.14421190549973
273.14837279481986
273.149787991093
273.1499082047064
273.149680145166
273.1488581704879
273.1460797421483
273.1492211326717
273.1498170748366
273.14994979471675
273.14995681981526
273.1498425087941
271.19641006856403
272.8109814873297
273.1012998828324
269.36089844605726
262.9065049423998
134.37194357664603
184.27531976886465
239.82238836928533
273.1421905989908
273.1485296901216
273.1497135356382
273.14994218211467
273.14996970805913
273.1499301933097
273.1497994206204
273.1499531534132
273.14996398095104
273.14988360188846
273.1495124385174
273.1481651001906
271.78550557054933
272.7057145422313
273.04572173419496
273.12346264410456
268.7541785870019
256.9880794353508
168.05371801198586
224.13512651238577
139.56500765681463
273.1427673459612
273.1480468852333
273.1499554810916
273.14946501078526
273.1498570630005
273.14996230754326
164.80728092256462
273.1498919115315
273.1495567476323
273.1193711242843
273.14818602774466
273.1428755034008
271.54587041481346
272.60280636525675
272.9626687281038
273.0888711725779
265.6134126723019
246.43543254390372
204.55078221729397
183.35360960687365
127.82052734101721
273.13094930169376
273.143918953079
273.1497874340424
273.14943247199585
273.14820370477224
273.1495215624009
135.73346073583568
209.41330170360683
255.98633223264434
271.1230403299948
273.1483340862149
273.143422338133
272.7318412545326
273.0526021906017
273.1243263793652
270.0187713396999
271.91390042355556
272.6908847487089
272.98360900805324
259.5249711554045
231.74799148267428
209.54433985078913
146.95730643158382
273.0743238656866
273.13093504685634
273.14812200352395
273.1439164419158
273.14406287065475
173.2684019883279
238.36495842194088
263.61934956870505
269.7361650320958
273.1264596810231
273.06239228454757
272.134494680754
272.84942860703444
266.90063298150994
270.48092135907876
272.02198390242665
272.6217476808022
272.74801184390907
247.5450706351453
219.49876251048644
179.4883978170458
130.32333239622238
272.99198039313507
273.0926575454292
273.1306507029239
273.0840163495844
145.37125186289992
217.15316478470228
256.09380813487036
266.2201325614796
272.84551322174224
272.26582363308967
270.5537124960634
261.89439960302343
267.61987378786495
270.3704449771723
271.48530928366046
272.115240790211
239.386631337401
200.0471959296497
141.32599475071024
272.71019175327143
272.9757208307121
272.64809850657474
271.8990365172935
137.0289701035555
195.0167522290881
243.3804455873176
259.2722313054196
270.6634700434419
267.3191760014067
271.08268931643767
253.57900185238194
262.4504757553416
267.0546330177786
269.50792484737025
222.6058493291948
176.17260392096446
125.86965090841565
271.79088949005245
270.33798901229767
267.5213942134263
160.36602613622395
225.40585300536188
248.3021571944421
261.2437580380881
131.98547292844594
269.2827366252923
266.50099625170884
241.43829732322766
254.32449994650008
261.69998680741963
201.09407357515758
142.92096975386053
267.3438097929149
261.6647281495029
252.29983582447315
200.99208897629367
236.63391836801966
150.82669185995996
262.3148169290707
253.75573979319492
224.11250806015525
241.74737796416994
175.66951045785922
123.82102638221261
253.58993137286294
239.15609942775504
218.58440726372382
191.16229061002824
127.21424874041399
241.05266574683938
223.2864023598116
193.06341485430264
130.81998328407084
221.8617583814403
195.9424941274032
162.5786912953191
172.24798917671163
189.5069558717744
133.87973624360896
164.55534564858783
132.1383297341923
140.19893185675767
124.95029954483968
117.06631079762973
</DataArray>
<DataArray type="Float64" Name="Temperature_@_t=0.6" Format="ascii">
150
143.7409184138456
150
150
156.46737558740085
150
114.41740593538681
84.99999999999999
168.46573646051013
150
150
169.94810365053993
150
172.86746888634994
150
173.88045499938016
20
150
175.12633814402872
150
174.3700187170174
99.77550450039206
20
150
172.06050115396133
150
177.12953509151006
141.18262208234327
20
150
175.53391613867572
174.99999999999997
140.33659579232298
20
200.00000000000003
146.9875111854848
20
222.42520470284447
200.00000000000003
138.36060849095915
20
234.2558443731059
200.00000000000003
143.64934804316536
20
200.00000000000003
237.35019745059458
141.59079897352197
20
219.4466699836898
110
146.38381397316218
20
20
177.40420272302046
20
152.14555058483975
20
152.9398917342373
20
20
137.01097689116511
172.1910678389825
145.228050189594
20
20
158.21999076988172
151.293574013145
20
146.3241078767292
20
164.11770136504478
220.99260441403422
250.71892830337615
20
35.469251521512426
20
20
42.09727616401924
20
20
153.32503540668844
20
270.4453296840418
264.6779879611027
20
155.19480946998388
52.92326663371768
20
83.46818620153381
20
272.93531815223645
272.4030273030865
154.52150590907743
20
134.99977219890604
20
20
70.06645991551171
154.07073870304228
55.66436708011984
20
273.09455637474605
273.13562943063636
20
65.36696454558545
273.14842369410326
273.1450681481017
20
68.25682474187435
273.1353871952055
273.14559519764947
67.78785893767638
20
20
20
72.70664680048014
20
172.59186031707938
272.920024669164
273.07128541656294
20
81.63988287046836
20
68.60485542842103
59.670260484249
20
205.61928348138494
250.72488645371246
270.37127167909046
271.86932254731886
62.75251022250336
20
20
71.24397367800186
263.74599728671734
68.35305830284197
20
20
77.50379169264448
65.793249397876
20
20
68.52015422788189
20
68.54592460749552
20
71.4503485817113
20
75.60836627947783
68.540498756893
20
20
78.78637574228411
67.63232739108922
20
63.09946446572123
20
20
68.9313048759851
20
74.31165368941889
20
69.94674870832438
59.33433878056993
20
67.79414526569501
20
20
74.60762007434347
68.35105031765744
20
61.798300628980044
20
68.16747062070534
20
20
75.04861977415779
20
70.84488797520011
56.650174843776675
117.69999134165393
161.61073545232765
162.18643250720024
190.35999623461353
191.61453559083176
198.37070068385606
194.45820062470614
151.12582496363913
208.66207817570998
222.2177170337575
218.8521401029643
199.3952037852558
194.2504760705497
214.85752222859364
244.00583060982862
244.9464489596605
225.62833905886106
203.3987851585811
199.747972045347
213.83417300190902
251.31175411674988
259.2186721256853
248.82506841772798
212.12206332773238
252.6844573119154
263.53109667708554
256.61699205306985
214.7476716667612
252.88378124367406
264.12080876695194
259.01343646735126
217.37749904004122
253.04889681204614
264.7308556508306
250.82307420660007
219.17419018229137
252.38329696274016
267.06913914654905
256.90362426411775
219.39771906911392
220.15723622693153
255.61325924923656
268.90488471729526
266.72990312746856
245.11902366024037
223.67193355371055
257.53116656514936
269.9391096349948
271.6058752032388
266.4338187206708
249.74049246512837
224.90548526861033
223.52831420910442
238.27194663524705
225.28185682813321
258.860465496321
270.34685005560505
272.6011972551741
272.17492100524464
269.0909817366938
260.59582013120365
235.47243750483563
223.9095588150053
222.48486110551707
243.21446336594724
259.73290655654336
267.8945538563966
74.40089483546073
227.9681859081259
260.4797245330587
270.61553634278283
272.7611769581741
273.0052537046406
272.63978708904983
271.21565863175874
267.21270226033397
260.2981689583302
258.51080896414595
267.7327996924803
271.32755816345247
272.70916591732185
232.49919916767035
94.4516961176668
126.75724003286733
143.71772377001614
261.43487812793813
270.8349519852264
272.8240376336864
273.0987105048621
273.09490186900297
272.936661150573
269.11571669817374
272.41549851108283
271.0820102553767
271.3206024242234
272.56561065917964
272.98176822769597
273.11464330870245
273.0921166179735
273.14282756217244
201.5689568778027
238.7144312947373
263.26175866834956
208.89507524469403
219.17383461616
127.3003032912648
103.9336383787409
203.849047233973
176.09727819368217
271.03956410110226
272.89042012218243
273.1124493117593
273.140783368173
273.1295244556615
273.07769395235
272.5277403414493
272.9326252809092
272.97424577295357
273.0992780347826
273.13577633332994
273.1464815657457
273.1487578595693
246.06788552162843
264.26475005462936
271.0347266213996
246.53942371740848
239.34779418598396
117.0712997458255
110.37027898426905
169.03493377735595
218.52895002995663
272.7391197855732
273.0636363854228
273.12189387060124
273.14506453035597
273.1475725145344
273.1433536259726
273.1301926993533
273.0944002347664
273.13568730024184
273.14580202174506
273.1485880715825
273.148700268975
273.1462829823809
264.99664453022024
270.9118465936579
272.6361328984552
258.6999980473433
245.2075423497627
114.32709729134736
157.89245986733954
213.87711742288886
273.02868775859116
273.1189165028754
273.1422986731272
273.14803957398925
273.14895499062504
273.14809720372676
273.1455588463801
273.14862403864487
273.14881976358805
273.1469175041008
273.1398410332195
273.12118153327134