<?xml version="1.0" encoding="UTF-8"?>
<VTKFile type="UnstructuredGrid" version="0.1" byte_order="LittleEndian">
<UnstructuredGrid>
<Piece NumberOfPoints="504" NumberOfCells="911">
<PointData>
<DataArray type="Float64" Name="Temperature_@_t=0.1" Format="ascii">
150
273.3732228776575
150
150
273.57847548358285
150
273.6608162218012
84.99999999999999
273.63388881088133
150
150
273.1814013278424
150
273.3924534865096
150
273.4489473662647
20
150
273.41056713404254
150
273.40771513189617
273.56126902283347
20
150
273.47506925793806
150
273.2749463470807
273.28854061350415
20
150
273.49067561967513
174.99999999999997
273.2746073908152
20
200.00000000000003
273.2484561975453
20
273.17136634059267
200.00000000000003
273.274532953345
20
273.1778866468221
200.00000000000003
273.25487794121074
20
200.00000000000003
273.1700853140855
273.26426669868994
20
273.2660295434947
110
273.24880229719594
20
20
273.21875014561607
20
273.24453010877875
20
273.2238419552594
20
20
273.3396394167601
273.1464176379152
273.2576266697716
20
20
273.2326958228833
273.2413887128477
20
273.26700644415615
20
273.21042793505075
273.1800504500865
273.1530675267017
20
274.0728183895989
20
20
274.18958607970046
20
20
273.23845552858694
20
273.15124184723254
273.1540157396793
20
273.2346808065222
273.7536656752434
20
273.60226387753056
20
273.15027798763543
273.1504654354942
273.22622052509604
20
273.3163457652391
20
20
273.26848089365006
273.25273947313923
274.56178102263306
20
273.150050608779
273.15002295179414
20
273.7359130238629
273.1500022784503
273.1500108621639
20
273.7983851130976
273.14999974107207
273.1500000866851
274.01223028513436
20
20
20
274.022691726358
20
272.8769748844981
273.14998955065516
273.14998364427265
20
273.29305461146436
20
273.675337789528
274.46086444575036
20
273.1455231117303
273.14163850603705
273.149393525328
273.1499030172326
274.3852943164079
20
20
273.5896510698904
273.1500735675433
273.7701122326002
20
20
273.4048046556393
274.1442908176413
20
20
273.8573632144801
20
273.82547459696974
20
273.72361499723417
20
273.6236352621743
273.8701373710681
20
20
273.4300282686875
273.90351586361845
20
274.447729344596
20
20
273.8442608824512
20
273.4085585956293
20
273.80198205050584
274.6160971549777
20
273.95381384655826
20
20
273.38199738987277
273.8611955444666
20
274.4076479492855
20
273.9242314573349
20
20
273.3454437785809
20
273.5957459849952
274.8892582360516
273.2183253194967
273.2297905548117
273.22447131943824
273.2286981066038
273.15870217881417
273.2033932224147
273.2139848718032
273.1299948830418
273.1541426202086
273.15808322092886
273.16240581873853
273.1962269599028
273.20470905598944
273.16562794723114
273.15133982635194
273.1531327819858
273.159858918244
273.20408741987234
273.3009397624708
273.1780034102912
273.1550108334581
273.152480781258
273.15932762510835
273.1760296479824
273.15509433707683
273.1522312343434
273.1586689412723
273.17619931048125
273.15516434786565
273.15229684821685
273.15335652069956
273.1775844512933
273.15512094631504
273.1529187071695
273.17237618955306
273.17767513060795
273.15452495483254
273.15133238351154
273.15217708310416
273.1995098346891
273.17574501655093
273.15480740173683
273.1509588347499
273.1517339564373
273.168233507783
273.1749596620195
273.154575549719
273.1509045638031
273.15061232278464
273.15191085888273
273.1513576186863
273.17934170674494
273.17726439237913
273.16911232641246
273.1739293122951
273.1547427167732
273.1508703998597
273.1502137321218
273.15014066671375
273.1505175463469
273.15594346247195
273.1687733924416
273.17365750767334
273.180964582335
273.15077552025963
273.15536619790356
273.1513856257468
273.22053964433525
273.172348490283
273.1544738888221
273.1508585125029
273.15016391398825
273.15004776318443
273.1501576738546
273.1506109470452
273.15135554375496
273.1549810753104
273.15502839139816
273.1508413160737
273.1505995768609
273.15014526597906
273.1754252173832
273.2895149625813
273.2385158912546
273.12391993164016
273.154390420958
273.15075788496165
273.15014881919114
273.150034072432
273.1500261163463
273.15004874861296
273.15114461629395
273.1501530945768
273.1506246081947
273.15029095889264
273.1502282615235
273.15006362162694
273.15002207105266
273.15005985762895
273.1500065320639
273.18910820147704
273.1519161538508
273.15282115087706
273.1874655766475
273.15414387099867
273.15906862412294
273.38200392531854
273.16721379518884
273.1573185845503
273.15075887873894
273.15014093712466
273.15003018737474
273.15000720484664
273.1500062674285
273.15002139498034
273.15021412994525
273.15006468782667
273.15003507812975
273.1500290073481
273.15000823710164
273.15000268704284
273.1500020057981
273.157991645348
273.1508070979938
273.15020277609636
273.1536274814651
273.1528034726095
273.27897377658275
273.3258597899873
273.17020057528
273.15156202204474
273.15010150897245
273.15003471308603
273.15000818732557
273.150003998524
273.1500016892891
273.1500027095357
273.15000778773424
273.1500256204336
273.15000878751874
273.15000290464064
273.150001076739
273.1500003081819
273.1499998754713
273.15107932842517
273.1502675835963
273.1500356004346
273.1504768106948
273.150946834403
273.3266682481032
273.1803906574243
273.15422222803403
273.1500098684224
273.1500055482816
273.1500008834826
273.1500004426175
273.15000042003317
273.15000101311165
273.1500026338869
273.15000136175126
273.1500003686083
273.1500001447835
273.14999996639875
273.1499973187719
273.15019345645703
273.15005951399615
273.1500360774587
273.15000847190726
273.1502350839653
273.1510316528959
273.1604531853811
273.15511085482507
273.34861954095953
273.1500017113642
273.15000058434276
273.1500001412888
273.15000017055223
273.1500000781905
273.15000034461667
273.30319682415296
273.15000017403935
273.15000011511717
273.14999784337334
273.1500002151411
273.1500006393525
273.1500639298874
273.15001124036775
273.15000435758014
273.1500017310063
273.15019703211766
273.1509424749584
273.1625991356877
273.1918263340224
273.31756627537555
273.1500004708109
273.1500000995802
273.1500000494651
273.1500000253931
273.1500000372776
273.15000007172256
273.3745123518433
273.1787243637065
273.1490380647174
273.1500910939089
273.1500001354506
273.15000057716355
273.15001241469366
273.1500047640286
273.1500018904058
273.1500463410171
273.1500168596362
273.1500050064422
273.15000134520477
273.1505153075532
273.15587302769126
273.15831232927013
273.27320501981643
273.1500003036712
273.15000006496626
273.15000003441446
273.1500000386449
273.1500001633392
273.23124034229517
273.1565986707213
273.1503430480909
273.15022719162374
273.15000088541905
273.1500040188928
273.15006483765745
273.15001727780435
273.1501551156991
273.15003482924834
273.1500085334116
273.1500026270688
273.1500011012562
273.1510669243503
273.15631228814374
273.1945363264702
273.3072490247547
273.15000035927824
273.150000225984
273.15000012734345
273.15000064912664
273.29955783350607
273.1681313208905
273.1521053421293
273.1505985313217
273.1500064954378
273.15002584528116
273.1501387694429
273.15020407038315
273.1500498328287
273.15002588895237
273.1500078207867
273.15000291697976
273.151223585703
273.15885416936095
273.2808532164301
273.15000121577054
273.1500010893324
273.1500048359067
273.1500187107267
273.28431927003527
273.1821391757372
273.1549848931125
273.15094602765635
273.15006976631554
273.1502080373869
273.15000936188125
273.1504415017112
273.1502169998976
273.1500656705918
273.150025586052
273.1551485260989
273.1933422209608
273.3204431864969
273.15000789264855
273.15003699162816
273.15009960220164
273.2283761821522
273.1568601981899
273.15232318690914
273.1504818418671
273.36300957514715
273.15004285471366
273.15008923200236
273.15129133374177
273.15068989058153
273.15018280621285
273.15826578690894
273.2725140037828
273.15009516936993
273.1502617593355
273.1509042803281
273.1707087719197
273.1519555836544
273.1797976173835
273.150269859616
273.150797341101
273.15601711156575
273.1516513245286
273.18863729985424
273.31722265036393
273.1509885858134
273.15145420800144
273.15799137403343
273.1716181789753
273.44562917831155
273.15177561067145
273.1550821764549
273.17061979232057
273.293101065676
273.1578232101483
273.1686893609549
273.1772389886207
273.18093080284876
273.1688519710398
273.2994255718601
273.1750141232823
273.4082537909987
273.17735602293646
273.3711102511162
273.4482418788231
</DataArray>
<DataArray type="Float64" Name="Temperature_@_t=1.1" Format="ascii">
150
134.63019168802535
150
150
147.0495404671415
150
109.30875681172488
84.99999999999999
159.15127076601706
150
150
156.43851319928828
150
163.25400873941763
150
165.22343247546152
20
150
166.95097044628903
150
167.17239666446315
82.06708830166538
20
150
166.3082584107103
150
171.68200303863298
113.82239905108052
20
150
172.77503488633013
174.99999999999997
114.56219484048454
20
200.00000000000003
120.74300344924042
20
209.1986378065888
200.00000000000003
113.73170727963407
20
222.18460267849926
200.00000000000003
118.2680931306056
20
200.00000000000003
226.78366605891804
116.63627707807656
20
210.94934675703243
110
120.71118311572867
20
20
158.0537354947193
20
125.66574995227371
20
126.28306338147293
20
20
112.84791572979812
143.0161592795611
119.75970862136909
20
20
134.0819340852245
125.66603347972976
20
120.82860779957055
20
135.98466933354663
189.9114174470485
225.25986009901712
20
29.417166680269954
20
20
33.6774938193369
20
20
126.6442127683224
20
261.01837876905444
247.73641557198462
20
128.2286923162668
40.94268477881673
20
61.19227849858224
20
270.98331368273216
268.1643361461849
127.35839157456522
20
109.6851550262211
20
20
53.12829500729412
120.36520782407784
44.23171545686755
20
272.3197599406749
272.84873145604536
20
51.84265658769123
273.0821481464946
273.0118199658654
20
54.902522637338514
272.8453352256943
273.01889485786677
55.39516112823372
20
20
20
60.978844725272914
20
143.20372478982276
270.9565828674409
272.10526464710034
20
66.76671770487683
20
57.77745944104032
50.797964315838726
20
174.15087347511408
225.31860526655987
260.97806777645945
265.8282611004351
52.652693052672944
20
20
59.86099402401612
245.9768554318853
57.21133672284652
20
20
64.78505342792397
55.59582878319087
20
20
57.52232039471955
20
57.75709950686616
20
59.916222028065135
20
63.30110122938566
57.693788507125525
20
20
65.79979284407148
57.011541895033155
20
53.49346920792807
20
20
58.04357386100313
20
62.27900524169376
20
58.84523331558571
50.55147315008162
20
57.16181530321986
20
20
62.51223851030635
57.60009844040018
20
52.47444492423402
20
57.45635231917972
20
20
62.85794620393971
20
59.55528700328388
48.45691512217098
101.77338036242314
141.88601473476487
134.16423204724322
171.22457030179933
164.67867451120205
180.05932286029733
179.48556673262095
121.46615148088993
173.28670659283355
193.1754743776339
196.7695857573195
184.39914019131
182.13777102449
178.10353986002278
210.5263458452824
217.91179334017423
205.6347107994297
191.035603955389
192.5763599925327
179.2427540830134
220.21922800313146
233.80083309250963
227.7849888348462
179.175864373711
224.2907796576753
242.32815069849622
239.24808601709853
182.41404572203012
225.66854866287267
244.78096018452513
243.14560283621364
185.50874127389704
226.58645734919602
246.5920781206382
236.46103634403178
187.75447566809146
226.52941378324695
250.79844232876596
241.87840072956692
205.0527747566457
188.9952001954484
231.93523886958073
255.3706549870053
254.79748540150658
228.1090330156117
192.836540229707
235.23601175719844
258.9404482039204
264.70629072090566
255.20519681035776
230.4062679763487
199.33609374858503
192.7496169609806
209.3803647082327
194.60356416627704
237.46302403597147
260.57498914483875
268.5126407729459
267.666661420167
259.5986167124372
243.09113309009396
207.81164355166854
193.4484940531295
191.6991228175768
215.50742348402636
238.90536234051532
254.3714627889856
54.18995886603512
197.5489518646194
240.17087704261948
261.51276307661266
269.6669007573196
271.3563285944381
269.6062776398285
264.2974272124897
253.83553636340625
240.2790554965168
236.98359274365728
254.09441075614816
263.7836406797191
269.5091388708551
202.54960637886165
68.44941489729689
90.86556092771185
105.816680819127
241.74114111364625
262.1795330405578
270.16386407855856
272.2395764829616
272.29489913602157
271.1104529092215
257.48570559003616
268.2821562555061
263.16826471256553
263.8122984858107
268.74632902252705
271.2531079004154
272.52213169181687
272.31387998765996
272.9491002679929
169.1120263728458
209.3382388304458
244.787375129006
173.11694885224048
178.8246984577102
93.16488579894654
78.2396829677745
158.62886898774525
130.92874819079614
262.73184032674186
270.6159645645616
272.45737604830134
272.8690403281053
272.72858974492016
272.14600001764853
268.5636503439352
270.95788237088306
271.21187953048417
272.32431326102375
272.8096273138881
273.02299516226236
273.08431453272874
216.77780757399805
245.8643141533108
262.32874876268824
213.05409388352174
198.85182186096816
90.22145842386777
86.89224767019364
128.7796354199755
173.24207555036318
269.42326304003717
271.80331744754716
272.5446732067266
272.9610494255719
273.03813589988926
272.95504950640264
272.73140276457303
272.2807899151464
272.8114304494538
273.0033350764002
273.0761016106933
273.07911976983337
273.0140528404106
244.52003750624385
260.8161842900626
268.3328607651743
229.0575726775621
207.76110737873432
91.10403113453884
124.6192393845281
173.1923491088464
271.2821775343023
272.4071977945416
272.8704789176693
273.0420477794598
273.08329204633424
273.06194731103466
273.00058596482444
273.0767711998588
273.08182386261484
273.0289863553838
272.8803339354347
272.60134679729487
245.3885476563093
256.78407593603214
265.4106353593927
269.5546067837701
230.26693716832781
203.20579955387734
116.2285653088406
162.72994726072895
97.24100324646223
271.4824301079732
272.39378037464235
273.06937150591125
272.8079972724244
272.9952891364546
273.0802541251662
116.99798959056416
273.0305171144642
272.88738580910973
270.38665691903685
272.5609096834701
271.88244190697515
247.201106757341
258.13479868961485
264.75144220531075
268.60182765757503
225.45106851134577
191.52601392527174
147.31564090138275
130.69594331074725
89.78158430944295
270.770084148571
271.9070140802783
272.9599271397201
272.8199774583382
272.51440402102384
272.862267184219
95.84122165460758
154.05531232754686
209.4200250801965
249.41056222858953
272.5807346932855
271.92442527426425
262.170811363424
267.93964017976947
270.5642854049294
242.24025517749791
253.6516363209668
261.25931470182053
266.04316353077746
214.40594381459678
175.4980913906173
153.75355548948286
103.53741449383816
268.426211578628
270.8516187849363
272.51036111767144
271.91312029922005
271.95935556546914
123.57554116594497
184.49967311847425
224.72261979190463
243.15457511736182
270.6788301327255
268.1846245208917
256.29577001978913
263.87334656397553
232.66379546758944
246.0833642108718
255.2066364843349
260.7309992835532
262.2493530806618
195.96064419905085
163.60203376913816
128.3081267457167
91.95248713478779
266.31403350680785
269.070806907952
270.8569937930907
268.7931458442438
102.76381376533627
161.56187829985367
209.8270868130785
231.48429658268108
263.79272062567435
257.36062640096566
246.77962451058553
220.69907408186432
235.4962353804506
245.8492238943355
251.6943929106636
255.9890435106103
185.62624517599497
145.5970466576005
99.77296698717636
261.8117944740889
266.0160562215238
261.09510732381295
254.4666928827465
96.82355802449617
141.37795053226455
190.8976719308819
215.64519496047524
247.2791951105062
234.6960460848545
249.40551525286037
205.55283995196422
222.15058635310288
233.86912556747794
242.22091809096446
166.97232137024366
125.85870614200267
88.9811839718648
253.66409639309362
245.75262063413882
235.3228303111591
113.76729402031057
169.95711399049063
197.63766587882026
219.58645916957582
93.272668138709
241.35194157763038
232.2668817955625
188.36422732359267
206.85986005857146
220.5595370482848
146.62686105651986
100.9800630708274
234.75768995306785
220.48105004028164
203.61531647709512
146.55429563906492
182.49216060470405
106.71819235826281
221.91200496036595
205.94163620850676
168.58993832211402
188.79601614606477
125.50459589696372
87.59521060298614
205.67070906515187
185.5403913564203
162.98587475426086
138.1074237973373
89.94852538579345
187.91505349398565
167.74344163349352
139.69043458032013
92.44899736186642
166.28382480833446
142.16135169834095
115.42715971457379
122.8372134593999
136.70349940023172
94.59042432128577
116.9207517392623
93.3745217109111
99.05831169094037
88.37879169555677
82.9800143878971
</DataArray>
<DataArray type="Float64" Name="Temperature_@_t=2.1" Format="ascii">
150
126.91664336170095
150
150
138.5918350977628
150
105.20752061864395
84.99999999999999
149.328890923393
150
150
143.20936483534103
150
152.41035559835152
150
155.00759893935583
20
150
157.23460080481198
150
158.8444865678584
66.16480887103297
20
150
159.95883044431403
150
165.94794099346834
83.13453155275967
20
150
169.99555340104394
174.99999999999997
83.77702792157123
20
200.00000000000003
89.19074402245285
20
192.26449488570077
200.00000000000003
85.12078706505504
20
201.4347889632519
200.00000000000003
89.19868006944961
20
200.00000000000003
204.86068667897442
88.72880967775257
20
194.97185735282042
110
92.25459291401101
20
20
134.50644004455697
20
96.54617890289597
20
96.96196649035261
20
20
86.83450166090824
109.8776897588565
91.80149164831299
20
20
108.4318747104317
98.63471366254714
20
93.50338068716496
20
104.6012470625159
148.86900823129758
183.270947549321
20
24.74823068848546
20
20
26.98761477680315
20
20
96.98756040484807
20
231.7222153417982
210.55467581245662
20
97.65236765673616
30.937986715946952
20
41.86358301107619
20
257.25870685563984
247.95186722816103
95.27345333719497
20
79.21873604972892
20
20
37.8872260504815
81.11626662702021
33.40935825851641
20
263.8188782952016
267.7776012474462
20
38.19978518377926
270.4044177918934
269.48986756237895
20
40.647784706808494
267.7718727179413
269.5816506985274
41.63931249323404
20
20
20
49.04362269872819
20
109.93546143265297
257.2501022039554
262.6249653138132
20
49.75830898799943
20
46.76628530271933
41.80060101624738
20
135.13135307235706
183.3054018837843
231.7235190226808
241.90437595653069
41.20189310219118
20
20
48.25726228597878
208.11949515220604
44.66535630684155
20
20
51.776311500841
45.21812006441038
20
20
45.344329303757895
20
46.7615435725072
20
47.373175281848695
20
50.71966566349558
46.10440712307092
20
20
52.506208568777645
45.82699506050455
20
43.72611722341699
20
20
46.70072818573641
20
49.989070971781175
20
47.36398008581386
41.63299411401052
20
46.23086769494184
20
20
50.15432067198323
46.58281439807723
20
42.99661953717656
20
46.50617173796629
20
20
50.39382918679545
20
48.019160728856434
40.134654222540476
88.21228427425238
123.89981653418
107.49432347591234
150.1726942936232
136.9111243646037
158.07031359436505
161.18240593735607
91.15408752368292
133.08489675017324
156.9425249043767
167.93028331488634
166.01076395004137
167.98724566808437
130.86901600782141
161.0642064656877
176.66761650138992
179.13470921545192
176.85810636462972
184.8675640611563
130.65258775350708
166.0421079691607
185.2892742337372
192.56892101770924
131.94725781670456
170.3963976011269
193.22548611672326
201.43647358404368
136.2734522804941
173.59449306780428
197.12983414169676
204.29277162515487
140.44781808118913
176.34648078904522
200.6206016602828
203.3216393787709
144.01183326515442
178.5312850650483
206.46399263405647
206.00019250984136
180.24655082915513
146.44714454192504
186.7254207162599
214.57980989702432
219.6952582829538
197.35871430974797
150.74114812551352
192.46028378640634
223.04391403036746
234.86200236852713
225.85320406880444
198.7775071817275
166.1613639957821
151.5573885279384
167.02922931130547
152.6940243910717
196.25617430254565
228.38068352133226
244.712527960218
245.8252787442465
233.75256129497743
210.75966660696722
170.12337611649858
153.72346861544864
151.12884238734293
173.4042846077991
199.13251830797802
220.3101166212427
37.6753911694483
155.11134158665348
199.91116076174308
231.4792799995914
250.0012497947093
256.50312562356385
253.13866917783685
241.68700327354955
223.04228633668717
202.9576216695011
197.46803585186106
220.13943281665806
237.38770812459393
251.9205760856128
158.3911149387617
45.76354244506898
58.26781532408494
68.14378204426716
201.14004980088626
232.91476570463874
252.77978604957772
261.45878044945334
262.8135527165263
258.71201879929316
226.49202523123273
249.97666970317178
237.62342923788972
237.84537431144415
249.72304759017047
258.4127908859939
265.1337798937261
263.82467888385025
268.71692457028547
124.67560554622007
161.9080606499064
202.9053632923506
122.41955406148965
122.18812761980121
60.46375529246014
52.81196371819997
103.71226574818353
83.40840689903844
232.77482805364193
254.1606007954597
263.3374619554551
266.824098891166
266.47597030845236
263.3099126879379
249.66252866767323
257.9065307055798
258.4350281359662
263.89292240095983
267.3687622046154
269.5674840382872
270.3975274883342
164.0506952156152
200.41020903089068
228.99782277908233
153.96366262712215
136.63014912063855
61.3099891128441
60.56874638120598
84.00383568200225
114.47580007237285
247.93253562964193
258.1711387461759
263.511794437526
267.7299581856364
269.21494041664624
268.7477069270154
266.92161737018984
263.83176761023077
267.4639311878855
269.344573056672
270.27317247398054
270.3159963111265
269.4533719276793
191.86158757078212
221.47338153662432
241.48078593275815
168.28752275053762
145.65504678796663
64.28474296614769
84.8206151460621
117.64022152626252
254.0040153187364
261.5490468958826
266.350032703679
269.0609162151704
270.12466865200753
270.06182274250256
269.36618659627743
270.29690949171436
270.35690159824065
269.6478957703485
268.0336028105775
265.7213564014227
190.53247829322316
210.4786995835129
231.17642958123955
245.77832483525916
171.48227569589105
145.4524912796426
81.99536969809894
113.88518173811893
70.92255162958612
255.64082545311194
262.2158255983366
270.0711965708088
266.3510012799174
268.8351519976631
270.32145674183863
89.90712613443473
269.6618175327226
268.10066397620557
255.01255445089097
265.4294147246823
261.3880764489482
195.7649472432681
215.9540490352036
232.43185081231067
244.98364451705035
170.60416478987474
139.77981272771214
105.77125794553258
95.85064332336283
67.06708862692858
254.16322288010767
260.37725800390496
268.7506425304588
267.25233334345234
264.5765328951565
267.8224683643644
74.22588979758883
118.5992804453024
167.01524688944326
212.8977616410444
265.5623912763363
261.61089748818523
234.0396368107673
247.34029663827604
255.6781710597406
193.46185360919205
212.5091585956309
228.03642043912512
239.9827534664241
163.75488334646957
129.93300342477548
114.63036138862753
77.5396837939785
247.51720490434877
256.23500836283023
264.9743610894175
261.3043794733898
261.7531734281425
94.87262685266444
144.05433501186008
182.71290789365756
204.4177952274546
256.1094489953866
248.03178076636996
223.4941556399033
237.58207791849534
185.68253028674755
204.387248242984
219.2173630941236
229.73388767927682
233.3769588584277
149.80739228451066
123.54303522526648
96.34611516540211
69.99031332582166
242.63812414643363
250.39431503186464
256.7040428960845
249.75212881073358
79.32537446724537
124.69586729833465
167.44373592563895
190.2523778085388
237.3978702205345
225.2869543738304
209.27743691233357
175.14003842501052
192.7671669278467
206.64135532531694
215.50415403878716
222.54894518541678
142.580586994991
110.2063295864803
76.05894745443594
233.1526112752556
242.32719436868865
231.95660240651122
220.54457265996422
74.95810156193662
108.58762038914642
149.74757298138908
173.26239463700776
209.95708420154713
193.9911645155032
212.7540510232575
161.55021083053873
178.8534904681321
192.32878538032128
202.86161839241115
127.85328204698578
95.71630334177293
68.63418102364957
219.20249893411253
207.85660774008338
194.72322886703623
87.50534338186253
131.6493275512166
155.88636803104168
177.30871026442776
72.36231496290004
202.02172323761394
190.96291925392234
146.5814365384549
163.98603677150712
177.97894179736156
112.0596177573204
77.5807370784127
194.00734064466076
178.2213870994274
161.4687574258446
112.65870502747647
142.3323278347605
82.25649514298419
179.6491158171258
163.51981252804785
130.06199645807916
147.586251786243
96.02058359936176
67.98697213774678
163.39017540740022
144.97896104123512
125.87041326480433
106.04128751680553
69.93480787188469
147.01163906945033
129.66984489325
107.06580617308735
71.59347320706706
128.55744954408178
109.18937773536136
88.7432614660586
94.23896913929646
104.89625393519712
73.22084549917257
89.84604013925743
72.42732044007936
76.55139418475251
68.72942209186888
64.85123603418587
</DataArray>
<DataArray type="Float64" Name="Temperature_@_t=3.1" Format="ascii">
150
124.2081729892273
150
150
135.55051276520715
150
103.79899942630128
84.99999999999999
145.54152983334947
150
150
138.272622320741
150
148.07303247394074
150
150.75826516745676
20
150
153.0527059838927
150
155.15772682445802
60.299131383672446
20
150
157.0878860709735
150
163.30432461296036
69.8392943381761
20
150
168.70403833275137
174.99999999999997
68.9957760488469
20
200.00000000000003
72.98526007628324
20
183.58529779270435
200.00000000000003
70.26034004386189
20
188.93374705245284
200.00000000000003
74.16128527440122
20
200.00000000000003
189.16952410348173
74.60800150439256
20
182.62596682915984
110
78.16434634042811
20
20
119.93945062748672
20
83.23251376765607
20
83.50499646531439
20
20
75.02471015492226
94.35508348993982
78.22583745865983
20
20
95.91812748035183
86.44515163845
20
81.32491396783114
20
90.2327937034536
127.97201451548203
159.14129321421677
20
23.201964230233727
20
20
24.731304957611254
20
20
82.4522643535663
20
208.09101630078771
185.664548685186
20
82.21419060919747
27.45789325339904
20
34.982942338594164
20
239.79413235946583
227.34032013461052
78.73030666765503
20
64.36545710007248
20
20
32.32929839537055
63.97569450792407
29.32184765100343
20
249.7486872837891
256.568245849339
20
32.79995658071767
261.67135412886495
259.83022257176003
20
34.71677926544313
256.56037096978133
260.0111673742799
35.6405225953116
20
20
20
43.788804117997806
20
94.37160604721804
239.78091323237507
247.83255922753366
20
41.91922790028218
20
41.92102372821855
37.848607610831884
20
115.93234490421109
159.14008279994422
208.07832516239634
219.8444699209833
35.80092706553059
20
20
43.14532260531092
183.16282475091228
38.617320702121354
20
20
46.034557261118955
40.65080641947929
20
20
39.3936062018127
20
41.91715597187709
20
41.21949134600527
20
45.16480718879611
40.44853581984273
20
20
46.62959163974465
40.42488867368231
20
39.42285857728983
20
20
41.29634476774937
20
44.555957481328214
20
41.969744457382994
37.69951194583351
20
41.163555640160325
20
20
44.67556509397935
41.534209170788614
20
38.79763320759604
20
41.538190118011556
20
20
44.834639019086694
20
42.82712052919908
36.421696865995294
83.39998145066443
117.35805145766243
97.49319061356691
141.87994835777218
126.2457699140367
148.9489734822407
153.34579332673886
79.12726834853443
116.72936100260956
141.737796793485
155.21309569117457
157.85109042955148
161.55268070082803
109.89709849602197
138.35343055680562
157.18268799863424
166.5946286175766
170.1845304246119
181.1857183734706
106.8033978669656
138.22444478049394
159.66127144108455
173.85203348487562
106.71209849379717
139.53548022009818
163.50381208617432
178.05649669296795
110.38236110894313
141.56113172614684
165.15405359926652
177.58362516226302
114.74342852468887
144.3350269510195
167.63692685064447
178.11352953506756
119.0692772633087
147.5018108956381
172.9350189324368
177.3241977312815
161.1555245593013
122.52787032787238
156.59568828219096
181.75635492971466
189.19869679367295
173.25441827709116
127.3616156748195
163.68324986813812
192.13516504539936
205.04522879534252
199.2286741682168
176.19569416192397
147.038213818598
130.56811135513988
144.25789219857015
129.57040959106084
168.5571713720274
199.68882621007432
217.44054271879818
220.56679383115105
210.1375509993477
188.35696673469627
149.87048422695216
133.84953203132076
130.81112375627217
150.50928738759868
174.53023313667404
195.795956182465
32.01146948710569
131.17657107059972
172.37059786036028
204.28475306695805
225.39834924265753
234.4466788862844
232.1741458550434
220.4024721964406
200.78108551744535
180.0262984129888
173.75107803614446
196.02317546575958
214.74378390857427
232.52688005503413
132.36786400729991
37.66543311792721
46.3643721902125
53.59277082964237
172.4141116503162
205.79549380957565
229.8005247975681
242.2493447738972
245.5380125311037
241.27647438191016
203.6198299804332
230.84506437867785
216.28070677720657
215.83969666985539
229.94058621983598
241.59616707269313
251.9699103226362
249.7789107772653
258.33044965293186
100.67569405633586
133.0523289611846
171.84681045050237
96.57698603653525
94.91586651425746
48.10346389690056
42.945798637002945
79.88438983424156
64.5040944294458
204.04986333037985
231.04240727764721
245.38995720085146
252.1653582238989
252.84585845989838
248.8171226571424
230.3687787731133
241.3723199389419
241.92831905353455
250.06119336205623
255.89311345544147
259.9962838189413
261.65489083444714
132.1400945397584
166.7015290709262
197.32405025196934
121.19670428231457
105.77523738423774
49.352418150306704
49.19138849417059
65.41066647316849
88.06480666792025
220.82793552102956
235.74788733303112
245.12316056580173
253.5761082937337
257.54475554241975
257.6822580816849
255.0368526552774
250.12917817000857
256.1665803149797
259.60864405719127
261.42214080522893
261.48941721438695
259.7438764364724
155.52392472943572
186.5735324388137
210.65109687561167
132.75215417626148
113.36329128678109
52.23900596171372
66.98227547706266
91.33793531745982
228.42523784973488
241.0515160181163
250.49792791314164
256.8516873515521
260.0401879062052
260.61964566702915
259.59569601479194
261.4568252375953
261.57279251799565
260.1340139873516
257.0374819409069
252.92225206793296