<?xml version="1.0" encoding="UTF-8"?>
<VTKFile type="UnstructuredGrid" version="0.1" byte_order="LittleEndian">
<UnstructuredGrid>
<Piece NumberOfPoints="504" NumberOfCells="911">
<PointData>
<DataArray type="Float64" Name="Temperature_@_t=0" Format="ascii">
150
273.2518107014518
150
150
273.3470702819892
150
273.38274129537496
84.99999999999999
273.37331433623916
150
150
273.1636069066694
150
273.2608820271741
150
273.28708325955427
20
150
273.2692737404354
150
273.2679646017414
273.3367100354543
20
150
273.2991355582462
150
273.2066059789088
273.2126251322308
20
150
273.30545418372236
174.99999999999997
273.2062984615059
20
200.00000000000003
273.19446046580947
20
273.15967959244426
200.00000000000003
273.206254315533
20
273.1625845487187
200.00000000000003
273.1973621626987
20
200.00000000000003
273.15906089979666
273.20160366355043
20
273.2024929787335
110
273.19460611295403
20
20
273.18102785653736
20
273.1926583104636
20
273.1833120006424
20
20
273.2357272426773
273.1483011781593
273.19859220134737
20
20
273.1873158723742
273.1912481833947
20
273.2028303692628
20
273.1772519555786
273.1636214451369
273.151396487146
20
273.57127650915913
20
20
273.6311562091693
20
20
273.1899198683952
20
273.1505665611539
273.1518207532499
20
273.18820497758776
273.4267367381854
20
273.3554830867956
20
273.1501269645162
273.1502114885067
273.1843971546557
20
273.22520147456066
20
20
273.2021325670739
273.1964362223861
273.80777203410236
20
273.15002315286023
273.15001047867344
20
273.41882640151783
273.15000104582674
273.1500049740958
20
273.4479560015157
273.1499999213372
273.15000004756706
273.5474205300043
20
20
20
273.5494171591228
20
273.02590909357036
273.14999551184656
273.14999258661834
20
273.2135275116912
20
273.390481937919
273.7609209980917
20
273.14814879742505
273.1462318794138
273.14972511419904
273.14995661557344
273.723556551121
20
20
273.3502510262392
273.15004484185425
273.4350390832829
20
20
273.2647779129472
273.60994637182995
20
20
273.47541399653005
20
273.46050651333377
20
273.4131618074691
20
273.36608190094057
273.48156403521176
20
20
273.276393997998
273.4974109244303
20
273.7529204597492
20
20
273.4696880151194
20
273.26635368994084
20
273.44980859619574
273.8341490151572
20
273.5209391265243
20
20
273.25428696156064
273.47750783340683
20
273.7342194588679
20
273.506708033872
20
20
273.2374199370584
20
273.3533740350494
273.9668037419257
273.18109113325045
273.18710541288146
273.1840799685578
273.1867874370715
273.15403398472523
273.17485430878656
273.18012700734755
273.14081783648834
273.15195436917014
273.15377081639826
273.15588790833186
273.1714258336821
273.1756070554636
273.15708618704406
273.15061438098513
273.15146413507995
273.1546157189136
273.17482919468557
273.21902785147495
273.16270252301143
273.15228761303405
273.1511361810162
273.15424840973327
273.16181542010077
273.15232173727605
273.1510206160862
273.1539325161329
273.1618858601899
273.152354305721
273.1510463577451
273.1515295259034
273.1625099073214
273.15233327648957
273.1513306038093
273.1601634751319
273.1625486753394
273.1520623006204
273.15060870340955
273.1509826891533
273.1723428820288
273.1616712385475
273.1521892412581
273.1504381375466
273.15078975762236
273.1582781157559
273.1613101552675
273.1520822845151
273.1504133368389
273.1502802106908
273.1508690254379
273.1506026872435
273.1633198033403
273.1623730265009
273.1586484330387
273.1608407606471
273.15215792817526
273.15039757874973
273.1500979453413
273.1500639397982
273.1502361942103
273.1527061187735
273.15849308856406
273.160718447978
273.16405154059464
273.15033919188096
273.1524419392992
273.1506296161063
273.1836887928044
273.1601242026768
273.1520348250943
273.15039196252263
273.1500751181856
273.1500219404343
273.15007238203884
273.15027835921495
273.15061540738225
273.15226678256164
273.15228867086785
273.15038436430626
273.1502731737055
273.1500662992562
273.16152098865774
273.2157390275236
273.19066799048693
273.13815233109295
273.15199622000824
273.1503458523523
273.15006817733587
273.15001568129463
273.15001201609795
273.15002223998005
273.15052431836466
273.1500700787862
273.1502849961296
273.15013221426426
273.15010468169197
273.15002908843275
273.1500101110471
273.150027317215
273.1500030057403
273.16781471629156
273.15085373552506
273.1512821352472
273.1670194305487
273.1518727310978
273.1542394954127
273.25949140518134
273.15783102222827
273.1535006937661
273.15034670159133
273.15006453717933
273.1500138841568
273.15000332278265
273.15000288578
273.1500098387723
273.1500983536611
273.1500296485356
273.1500160934224
273.15001332232276
273.15000379058796
273.15000123784876
273.15000092446525
273.1536541899181
273.1503703544308
273.1500923297345
273.1516603733408
273.1512898825137
273.2105425798599
273.2331654272869
273.1595022019262
273.15072615296003
273.15004661344534
273.1500160666403
273.15000375591376
273.1500018462691
273.1500007834045
273.15000125099874
273.1500035929161
273.15001177091835
273.1500040634556
273.15000133762936
273.150000498103
273.15000014339427
273.14999994558815
273.15049579615794
273.15012376220153
273.1500164527906
273.1502205297895
273.1504451618682
273.23365083809387
273.16457787061523
273.15201955036895
273.15000454927196
273.1500025824027
273.15000041099296
273.15000020538895
273.1500001952167
273.15000046955726
273.1500012132781
273.15000063131043
273.15000017121815
273.15000006831
273.14999998952266
273.14999878651264
273.1500904311674
273.15002752284255
273.15001680020526
273.1500039707975
273.1501127556287
273.15050332110235
273.1548717385895
273.15248444326085
273.2431459297
273.1500008024564
273.1500002733389
273.1500000658775
273.1500000803607
273.15000003666705
273.1500001600048
273.22094912270126
273.15000008133023
273.15000005549786
273.1499991307465
273.15000010671514
273.1500003213819
273.15003084678256
273.15000542167695
273.15000207634426
273.15000083273986
273.1500966285503
273.1504508952085
273.1559320444726
273.1700576829423
273.22997199017954
273.1500002285887
273.15000004861093
273.1500000233584
273.1500000121419
273.1500000181083
273.15000003429446
273.2555911053921
273.1634733482024
273.14960359460014
273.1500446355391
273.15000006645647
273.15000028283407
273.1500064919682
273.1500023869931
273.1500009227621
273.15002242779724
273.15000829749573
273.1500025021691
273.1500006820457
273.1502477314728
273.15282247883357
273.15393126836403
273.2072895987507
273.1500001541729
273.15000003326526
273.1500000169563
273.150000019728
273.15000008057154
273.18768981477245
273.1531226677433
273.15017262888983
273.1501093277164
273.1500004349314
273.1500019682073
273.15003114511046
273.15000835033425
273.15007633081154
273.1500174253592
273.15000435132674
273.1500013292994
273.15000056696033
273.1505219539885
273.15308921712705
273.17153704595404
273.2247759784679
273.15000018561227
273.1500001160171
273.15000006459746
273.15000032111385
273.21970923000055
273.1584836555184
273.1509963160916
273.15028532484286
273.1500031660578
273.1500125664738
273.150067023312
273.1501022273612
273.15002496606775
273.1500130010957
273.15000397355993
273.150001486555
273.15060628729015
273.1542117655115
273.21097530136353
273.1500006244692
273.150000552074
273.1500024139072
273.1500092201561
273.21340237772284
273.1652472146405
273.1523705997528
273.15045602474476
273.1500338707297
273.1500995310045
273.15000476258206
273.15021535638726
273.150108690892
273.15003273627036
273.1500128263503
273.1525003233905
273.1709805431711
273.2313200011509
273.1500039754001
273.1500186647954
273.150048246563
273.1864329412909
273.15325613780846
273.1511028449424
273.15023172697653
273.2506935149873
273.15002178144886
273.1500441970846
273.15064123482347
273.15033808794755
273.1500905648215
273.15394741815976
273.2070357709085
273.150047089702
273.1501311940435
273.1504429738574
273.1597842782601
273.15091849516153
273.16429868150436
273.15013474496794
273.15038759926375
273.1529280318072
273.15080515441406
273.16873916753553
273.23000573774993
273.1504870250545
273.1506987976877
273.153919998474
273.1602722132932
273.2906796065967
273.1508618618577
273.1524611662407
273.1598718262981
273.2174118100327
273.15384498059933
273.15882492872834
273.16298958754686
273.16513045789344
273.15896718352843
273.2202281823058
273.1619699864785
273.2723940472363
273.1628977651177
273.2562880067215
273.29327671931065
</DataArray>
<DataArray type="Float64" Name="Temperature_@_t=0.33" Format="ascii">
150
159.73231556236132
150
150
171.428673972929
150
124.25679256435852
84.99999999999999
180.18005452383082
150
150
188.62895928101062
150
184.23385535258788
150
184.1793006613243
20
150
185.5203559595792
150
184.52634771225624
128.4788708834106
20
150
181.1401687451814
150
186.5641943551652
176.7348588374027
20
150
180.67856930271049
174.99999999999997
174.371264396155
20
200.00000000000003
181.7683097282854
20
239.5927170441178
200.00000000000003
171.9132225003186
20
246.3453133229763
200.00000000000003
177.96122702560217
20
200.00000000000003
248.39589149403767
175.58365199989063
20
229.80021015962998
110
181.01656381616115
20
20
203.29826354760442
20
187.3270684183274
20
188.33153918848518
20
20
170.3029826538106
208.94914754673493
179.68338954609206
20
20
191.63698416963192
186.21042619321756
20
180.82747787086308
20
200.34444392057347
251.4069714164195
267.918852964813
20
47.29374963606795
20
20
57.7348860491368
20
20
188.68647802949704
20
272.93963686089046
271.9872940202388
20
190.68030220895346
73.44900082711264
20
119.31217613255122
20
273.1417965646903
273.1030933212453
190.10960942960327
20
168.24065094668842
20
20
96.11407745201112
193.53233988934858
72.36596370458159
20
273.1483678382259
273.14967243523415
20
84.13084122294693
273.1499811060666
273.1498896041885
20
86.44929467534968
273.14967267015686
273.1499251695182
84.84536601963059
20
20
20
90.54347190518921
20
209.7962611450256
273.1403848565889
273.14766787625416
20
102.47667735060506
20
85.07429638282052
73.22063063754526
20
239.6815339750643
267.6880026052357
272.89652391835193
273.0754773788451
77.41178610283524
20
20
88.4754027983082
271.84258970862385
84.73959619346344
20
20
96.65320413318393
81.28417913095585
20
20
84.91321735375594
20
84.90511310771979
20
88.75298881914914
20
94.1768885361543
84.91769147401982
20
20
98.33404081313758
83.71841088425698
20
77.72598797201442
20
20
85.42828351760444
20
92.49186830287842
20
86.76669363681482
72.73806785175516
20
83.93216836432508
20
20
92.8767029758386
84.66476878110518
20
76.00747782372396
20
84.42386069793703
20
20
93.45542871006172
20
87.94736335243303
69.17288037647582
145.45623403622105
192.0455785769193
202.57102511490595
212.68830975409625
225.34583198819726
218.27557728173443
211.69164438791435
190.91875978832684
246.22833036824275
249.2547688059997
240.92423384694027
217.80972215398083
211.34242120812488
249.43059080828175
266.58763175898133
264.24987977752807
247.68620342895835
221.88914781894076
211.838204584105
246.673965851208
268.95550172490374
271.1342609313279
264.87702769753383
244.83373311201294
268.9534755590492
271.8954780037819
267.25735482403525
246.7589108806271
268.9113409950435
271.9060600892144
268.41703155218335
248.65389981540048
268.90024020087543
271.9118802740218
262.43696842469245
249.9131666909132
268.57845966718764
272.5434969271568
267.3170139732006
235.8408332817362
250.6256059481096
269.6493068080899
272.80098425622685
271.9669054857782
260.5661177608708
253.0515867233028
270.24939016078446
272.90295706593525
273.0365950116133
271.9574763242785
265.5854904400578
251.49056134034623
252.962396487152
261.9865186899896
254.14739368587757
270.6573439801345
272.9437217163359
273.1301554421303
273.08789252965886
272.7029620667897
270.85553561368016
260.0972887509275
253.23309153495822
252.20340133497137
264.6014935970258
270.9706275335208
272.65682486891455
110.09033445550315
255.91429055826288
271.1005147595269
272.97313086750313
273.13727230393147
273.14634714505206
273.1285815902398
273.024230945635
272.4966757599239
271.0562460753213
270.5884930090452
272.644789947521
273.0461097372145
273.1335072359603
258.7033694391591
135.7117358105294
179.5676042159976
192.86304104001098
271.3725329690421
272.9994525745146
273.13976247051636
273.149152919022
273.1489935541026
273.1440329459524
272.8351902245556
273.11916550678484
273.02450162070545
273.0405143293992
273.1298524500858
273.1460614232337
273.14933028457676
273.1481258300023
273.14990536280044
236.15538594526737
262.29715390097766
271.8022627367159
243.05631762532047
253.0251315267214
174.26202749935715
138.99411862243497
246.54112916064312
228.20959653125033
273.02164919648675
273.14176591706956
273.14940798029824
273.1499107160898
273.14973441728233
273.1486260437353
273.12933704285336
273.14425803653694
273.1458712420909
273.1491990229799
273.14984091602804
273.1499666225795
273.1499903674025
266.05562152805254
272.05877659297994
273.0315033061292
267.08503502645596
265.88807609548934
151.51590805786392
140.85201392176847
214.44615822217656
256.39900088249254
273.138853517085
273.14874891398546
273.14966182882205
273.149960387013
273.1499842629824
273.149938301589
273.14976178901117
273.1490919293433
273.1498430636816
273.1499671555743
273.1499918056592
273.1499931259082
273.1499706395572
272.3214008067967
273.03934740029285
273.13768449084773
271.48827246404943
267.5166864667696
144.72637159607308
196.636027521462
249.28553872998927
273.1484055460435
273.14974683486025
273.14995597746855
273.1499920464508
273.1499956751708
273.1499885222313
273.1499625493948
273.14999251680456
273.14999472215226
273.1499811800675
273.1499093668239
273.1495747974011
272.64381260122923
273.01165738265416
273.1223140594596
273.1438601052121
270.99700384107103
262.84322516619665
179.83018627832914
234.83577047642572
150.07782942922162
273.14852602866137
273.1496473292734
273.1499940334733
273.1499134780011
273.14997926754745
273.1499945322992
176.47101477341758
273.1499832383638
273.1499219005953
273.1414817912574
273.14963596577314
273.14834622272025
272.4713171103865
272.9513306920317
273.091099488046
273.13338433436934
268.90610159249417
254.30099574248425
216.23413364955186
195.28890376495258
137.59693343926637
273.14548888833775
273.1487163680319
273.1499687319831
273.149908248753
273.1496744340455
273.1499200515245
146.01937587950496
220.9250382018739
261.95541075258114
272.23442298091044
273.1496755826757
273.1485189071964
272.9970750380328
273.1202489615867
273.1433294408723
271.62254169189026
272.6297483619706
272.98380435199897
273.0978859270906
264.58888272508267
241.58535309407048
221.00205901950378
157.8433123501142
273.1287534354069
273.14553600436756
273.14965510759276
273.1487472086455
273.14873358699873
185.08735439363346
247.41273780617112
267.5259858976039
271.4472385346863
273.1439767944906
273.12398131659796
272.72902248987975
273.0450261031469
269.71101432333336
271.87770010310305
272.68179255803426
272.9549839506902
273.00907867224976
255.1838168334262
230.39336059476108
191.38576559933355
140.25774856628777
273.10123924780123
273.13456031205874
273.14540346061887
273.1316641197923
156.16749180829524
228.2028975450531
261.9946688194145
269.2659358281078
273.04402063358344
272.79267129900495
271.9125520702078
266.3024742674938
270.1730143664815
271.8170199894153
272.4173560548514
272.72940499033535
248.288340030791
211.82436311224714
151.91648056666324
272.99272859101194
273.0948582749067
272.9657524943189
272.62162727413096
147.36565631288565
206.89032068022723
251.70543518720214
264.3942057909297
271.97605780731413
269.9766656705779
272.20757991068155
260.04213355937986
266.6981858577467
269.8145271210444
271.3246633570436
233.27422960894975
188.02702473671954
135.51351900600096
272.57006144687244
271.79771534404153
270.1073057882567
171.8200658359298
235.84765558013945
255.8023888617072
265.8371322644202
142.0246933207595
271.19207577653475
269.45728645855274
250.05014491913857
260.6241078021764
266.1642440329246
212.84480934462795
153.59690007957587
269.99752974481345
266.1392952451883
259.03086582856116
212.75302146926214
245.89603132056752
161.88856445927735
266.5981128158807
260.1790655239875
234.65962711690733
250.30905712707406
187.5152146761593
133.3256759617761
260.04943313572693
248.08987181630343
229.54329319193036
203.0759778603117
136.94813628192944
249.71602814718673
233.90044095261013
204.96881597000726
140.7889341763099
232.58544415451686
207.80269235675038
174.10465795278733
184.02880556849547
201.4421746121054
144.03815070045877
176.14357888465005
142.18821840195093
150.72322154649876
134.53244248720657
126.09406690819834
</DataArray>
<DataArray type="Float64" Name="Temperature_@_t=0.66" Format="ascii">
150
141.79820119448166
150
150
154.50596718888883
150
113.30650141747965
84.99999999999999
166.65759146303992
150
150
167.23674975906195
150
171.053252205559
150
172.26438772391688
20
150
173.57965713699147
150
172.96645996816417
96.07241009136574
20
150
170.89967604935006
150
175.99832053681044
135.87585150224706
20
150
174.9490382903696
174.99999999999997
135.35711053091384
20
200.00000000000003
141.89134413868126
20
219.86984397520789
200.00000000000003
133.52993997683117
20
232.16984894411794
200.00000000000003
138.66982535554556
20
200.00000000000003
235.56610125448694
136.67763935096073
20
217.91252124506303
110
141.33664203392257
20
20
173.62651635664648
20
146.95788815283015
20
147.71644972130977
20
20
132.2335605677637
166.5480376045684
140.2162184989933
20
20
153.41639461090725
146.21531229914117
20
141.2979181759472
20
158.64533613474188
215.36870031010167
246.59084627982824
20
34.14580665629874
20
20
40.27458434543201
20
20
148.10005989754038
20
269.3819177066084
262.327597655606
20
149.92716440537558
50.3752645135769
20
78.79715577513659
20
272.8026250489417
272.0353513027626
149.2456666687814
20
130.13617591419873
20
20
66.56213812647464
147.71840391216026
53.34209932176934
20
273.0543349480218
273.12408511482005
20
62.67941443450599
273.1468428489683
273.14076318782173
20
65.64476888033967
273.1236068145438
273.14160600445285
65.3779261312677
20
20
20
70.33474705471927
20
166.89959190300902
272.78388625196243
273.0169817677948
20
78.74331190641215
20
66.41476858840406
57.873956836054745
20
199.7621265542005
246.61479203090926
269.3113213999587
271.27995318633094
60.76475547794589
20
20
68.94418689738528
261.23807659185906
66.14541653824561
20
20
74.93762040622234
63.731837837292346
20
20
66.32490371092048
20
66.36607482092917
20
69.13678404350809
20
73.12448982790487
66.35705117044363
20
20
76.16665291804175
65.4900254875268
20
61.15666723274033
20
20
66.73327714443305
20
71.8822593172549
20
67.70474063269977
57.55708645298275
20
65.64565579533428
20
20
72.16574826743467
66.1785444231234
20
59.912155199393204
20
66.002809899431
20
20
72.58770266655033
20
68.56421491994568
54.99172163724553
114.30750280695513
157.5246012803769
156.4714228508221
186.7158595155859
186.3240840608228
195.004289832428
191.69058017855943
145.2249024462471
201.9999953816678
217.01053429261034
214.9061173721141
196.5764564495773
191.87799363069888
208.25697443017762
238.50565311565978
240.51863087811486
221.9556064092665
200.92466409503547
198.26212762030488
207.72222458458074
246.56207392948292
255.56616985453357
245.37260805138888
206.22775719425275
248.396039551291
260.7357531341017
254.08132203076198
208.94000609151317
248.72354019440317
261.5708381252893
256.7663032380639
211.64914014512718
248.9756050639203
262.3566470482511
248.57250112662928
213.5128628464138
248.33972661539528
265.04950265665644
254.63218968736228
216.79959147780394
214.5294798111752
251.96597660886246
267.32812968538343
265.1721298128785
242.18876974730674
218.13720544129083
254.12779221585694
268.7012217041606
270.9379348455834
264.85108847848954
246.43667310557566
220.1882492126461
217.997909919631
233.30035827602927
219.79327383800373
255.6256773702016
269.2497845111568
272.2859446158818
271.7438042277586
267.8502303593157
257.88358606891825
230.56761414124077
218.4069937636523
216.93353333179184
238.5382895613255
256.60758519464554
266.16172159463264
70.0687712481445
222.5648796082628
257.46466905328117
269.6020937881727
272.53108326798935
272.90658588720856
272.3763292135962
270.43889659453924
265.4128777117921
257.2835191152594
255.22969459006006
265.9746597205886
270.5346277174401
272.45717086854853
227.26343796118252
89.0115849314854
119.36616164093128
136.1861144389022
258.5505468228491
269.8856648705217
272.6284157996645
273.05790023756987
273.05340886058724
272.8048238712627
267.68549777855634
272.0400649188548
270.21658419683257
270.529971743412
272.2447591717741
272.8691927588034
273.08661631432915
273.0510875775137
273.1362584910474
195.63756091602076
233.7413261828992
260.65295974025116
202.58996004262022
212.22252604658706
120.41343586470985
98.80499753379804
195.6192845456626
167.34859673381303
270.15006253055816
272.73128478360655
273.08223315778787
273.1318903910247
273.11220130300336
273.0247482195882
272.188088355666
272.79444857114885
272.85796811067354
273.0597126656923
273.1230324400605
273.1429450034507
273.1473762066955
241.4034944233508
261.77535333621023
270.1264869966058
241.35196254338504
232.77538885769846
111.86281832100845
105.8506071866057
161.38592752914795
210.55289842513162
272.4920070401956
272.99709195514185
273.097672314507
273.1399573938714
273.1449111963431
273.13698591644703
273.11312365656363
273.0517117056613
273.1229065596661
273.1415524557157
273.1469822278131
273.14719306974877
273.14245432155514
262.40325661205685
269.902908394868
272.3198930229974
254.56763946930297
239.34566708380405
109.87108342413494
151.6610850717199
206.77960818334176
272.9347804916037
273.09040766153936
273.1342146958543
273.1457173355148
273.14767676198767
273.14599622245095
273.1411264105597
273.147042994115
273.14741674702555
273.14364609223236
273.1303233038859
273.0974189583058
263.6887660985096
268.73686788286136
271.6150873243402
272.61083875466494
254.41753815356583
232.61926337590583
139.0848180675093
192.21631396828207
115.2513873157783
272.95564848086093
273.0812984064539
273.14671436735165
273.1257375416398
273.1416197997914
273.14730380951795
137.12340007658375
273.14382229053814
273.13115997033054
272.6684964112804
273.0928926799695
272.98655679095015
263.85469459759497
268.7933553944678
271.153400870558
272.2725884302101
249.05682072229692
219.40131218612814
173.3500728174184
153.67177428659696
105.67336957972239
272.7826564265869
272.9967511674416
273.13838549741774
273.1249913343135
273.0887218181228
273.1289530488885
112.31238514446785
178.63530832928564
233.36047727338226
263.32144630177135
273.0956824292262
272.99413600374436
269.8496145461668
271.9898134287687
272.71309975992835
259.8409860806862
266.07712927563875
269.57572444413876
271.39830057614193
238.784270524769
202.1983499598671
178.78622391287146
121.75922002879416
272.15167357002287
272.78366599327563
273.08714304152096
272.99446589428794
273.00125404567274
144.67567217646356
210.08925726129965
246.09397815510042
259.40626625726173
272.73950015944143
272.0659124896331
267.0793444415654
270.53996925891073
252.59755147019845
261.4399555324582
266.5803801788041
269.23564703650067
269.88772745807927
221.5647491891684
189.04155262062085
150.28771564104602
107.83192371639605
271.45912899823594
272.3308242692128
272.7826947186232
272.25024649214856
120.47235603238002
186.61488021115886
233.6659130769116
251.24422973898098
270.5090868526858
267.61494870364453
261.6934809915975
243.03810054788164
254.24204081303256
261.14281904508704
264.61077300006764
266.93241320327303
211.34449931526623
169.51104875131338
117.03704141450399
269.69201850504993
271.3500051327485
269.3754323510659
266.1213709943722
113.44903944920964
164.71579964179685
216.27561991584432
238.64673898129436
262.0037720932573
253.59067556725867
263.27950077660495
229.95418395048924
244.03874990648265
253.00342024513796
258.7873693284937
192.3568977670393
147.3119775606871
104.15790263777009
265.6975393704841
261.0541509038532
254.03873591459543
133.33707798811
195.3806882533311
222.64360642253465
241.9262892198585
109.23184361720008
258.20801306467274
251.82108967199966
213.8616043737475
231.04893193895103
242.72285601093458
170.53298009584208
118.38851177429068
253.63610873681532
242.65664291344146
228.1299944324979
170.42746171273106
208.07297073321698
125.113268503189
243.81201437755468
230.22045426975478
193.97961668206742
214.25176687478742
146.8635347205742
102.47087684495264
229.97778899329413
211.0788520437022
188.1076797997165
161.07760077309925
105.27260846179342
213.3944044616635
193.09087618525294
162.85137557755772
108.25892547199355
191.56841969712914
165.58662614065358
135.2649096256121
143.80354481466725
159.51531015269492
110.80470481179941
136.9947049933801
109.35598032345364
116.09874365929905
103.40128243707531
96.9295767688625
</DataArray>
<DataArray type="Float64" Name="Temperature_@_t=0.99" Format="ascii">
150
134.78025905732179
150
150
147.20963072297675
150
109.39056317841427
84.99999999999999
159.3235264721827
150
150
156.67893006799218
150
163.43765434171567
150
165.3914825034765
20
150
167.10843910223912
150
167.30727065420967
82.36673750657094
20
150
166.41214957933087
150
171.77703783133038
114.3335620716786
20
150
172.82182823724187
174.99999999999997
115.05008201003803
20
200.00000000000003
121.2372302500985
20
209.45199578136447
200.00000000000003
114.18869840808223
20
222.44820750912916
200.00000000000003
118.73786427155305
20
200.00000000000003
227.02664947883662
117.09521402844759
20
211.13129328266777
110
121.18352783410806
20
20
158.41528166917647
20
126.15448631960997
20
126.77495844318058
20
20
113.28901318048467
143.56297465128364
120.22745338037593
20
20
134.51866070918888
126.13145748092087
20
121.2949812191274
20
136.50823886488726
190.5387281577882
225.83215817711178
20
29.51296859300346
20
20
33.812783798810266
20
20
127.13712777380273
20
261.3016029324308
248.17195348221313
20
128.72906514756468
41.140065968210855
20
61.56642186728824
20
271.0643078581084
268.31632446097586
127.86823436838812
20
110.16730011408866
20
20
53.41780612478634
121.01304029861103
44.43179085480114
20
272.3570760387078
272.86455277536874
20
52.08612191157108
273.0867221927652
273.0199878662806
20
55.14828717061264
272.8612565855402
273.0267177805576
55.62583732403426
20
20
20
61.18698268211886
20
143.75363745171285
271.03757289961726
272.1500059187252
20
67.04465949392024
20
57.969567350310236
50.95517626790207
20
174.76686760251454
225.89070736943754
261.260432073898
266.029119342485
52.839482037832724
20
20
60.06322474311603
246.427441232208
57.41586481149111
20
20
65.01139695396101
55.77685240693912
20
20
57.722211603405704
20
57.948751803484775
20
60.12422003430972
20
63.52004884005197
57.88817653385622
20
20
66.0309719779615
57.20111209493758
20
53.663898805416565
20
20
58.237484674007014
20
62.49296202972062
20
59.04272857650981
50.70719042217828
20
57.350752080812846
20
20
62.72732975531472
57.79109534967956
20
52.63981925793449
20
57.64659492208131
20
20
63.07475583780137
20
59.755892052033566
48.60212375370313
102.03617422854354
142.22377389077565
134.6539767947311
171.5862398046058
165.1707266215458
180.41972784873113
179.7802274223305
122.00111274595876
173.96478384788554
193.7608506453958
197.21969728877323
184.6910863651034
182.36432209690003
178.84738721429798
211.2606977119453
218.5099595062239
206.03599671805767
191.26186679842525
192.70204695753222
179.96196232602082
220.9518598331941
234.4293852403471
228.2584771540669
179.85628450604648
224.9744549788962
242.8952603901873
239.68666621539433
183.07791309695133
226.31855012787398
245.3032344815193
243.5619104142492
186.16124240386634
227.21436255962135
247.08490026687903
236.81272670295874
188.3947502378508
227.1347318577214
251.25671951570413
242.25488572798295
205.3536071220805
189.62714255250515
232.49665476857558
255.76952597636105
255.13147495610573
228.48046088275325
193.4648070060609
235.76738110558708
259.2739440297341
264.940238359555
255.49882866155318
230.8235193506932
199.84188681606537
193.37532034089608
209.99407678460736
195.23033749773083
237.9761464124127
260.87158190549053
268.67042593451725
267.8226015451044
259.8575267683381
243.5014016705541
208.38004405709515
194.06281269200716
192.3219720441061
216.10706362610537
239.40726519206603
254.74158025337786
54.51939089143708
198.17536396752215
240.66520558003776
261.7898672562735
269.78930490963506
271.43024382392576
269.7165022872238
264.5065009275936
254.18707397521953
240.7583809543237
237.49456409004418
254.46609562287708
264.0219649792221
269.63052237571634
203.17825038058513
68.88745429501542
91.48283636998796
106.49789060583161
242.22684634094068
262.44564102045155
270.2696871120493
272.28269748639053
272.33367651449043
271.1838141212215
257.81349036642763
268.42562086569296
263.4107199459348
264.0489555459558
268.8857820363305
271.32633482259195
272.5518869205939
272.3512088733533
272.9605099094832
169.76686479395977
209.9783559324833
245.25949862202256
173.86300024780363
179.6764124369044
93.76722029747681
78.69927981111529
159.52595957807037
131.76497898523027
262.99255479391263
270.7094027342229
272.4909115713678
272.88519475847494
272.74973516442924
272.1885151050837
268.7063129195944
271.0381050074074
271.28599128746197
272.36165698520784
272.82750493119937
273.0307822060254
273.0888531137846
217.4551837168191
246.35367683357308
262.6085239839054
213.83848757620044
199.75171125837548
90.71960650812936
87.33347836254214
129.5426263573237
174.1709014791952
269.5546341996513
271.8633226985021
272.5754604291792
272.9727597257607
273.04546843077446
272.96610602479456
272.7523335057512
272.3194268205212
272.829140336451
273.0121298081629
273.0811149603091
273.08396501638714
273.02231138092645
245.0878362174422
261.1486145664644
268.5037332365989
229.8104259757388
208.62245330883584
91.54387134447178
125.26482332926398
174.0401511619416
271.36402421881843
272.4455267765239
272.887129039876
273.04935352493254
273.0880191374543
273.06770047807595
273.00945377113885
273.0817440438491
273.08652955356825
273.03647450058446
272.8949777304113