<?xml version="1.0" encoding="UTF-8"?>
<VTKFile type="UnstructuredGrid" version="0.1" byte_order="LittleEndian">
<UnstructuredGrid>
<Piece NumberOfPoints="5313" NumberOfCells="8293">
<PointData>
<DataArray type="Float64" Name="Magnetic_flux_density_norm_@_t=0" Format="ascii">
2.646084593399657E-4
2.580880620703691E-4
0.06361731485846862
0.060365765612844124
</DataArray>
<DataArray type="Float64" Name="Magnetic_flux_density_norm_@_t=5E-5" Format="ascii">
2.598405132734295E-4
2.53451255932828E-4
0.06538300434770063
0.062071834098993334
</DataArray>
<DataArray type="Float64" Name="Magnetic_flux_density_norm_@_t=1E-4" Format="ascii">
2.5397208110044135E-4
2.477439059437779E-4
0.06704116873530126
0.06367119871681329
</DataArray>
<DataArray type="Float64" Name="Magnetic_flux_density_norm_@_t=1.5E-4" Format="ascii">
2.4739385985720366E-4
2.4134577057296764E-4
0.06867702039316391
0.06524413399128551
</DataArray>
<DataArray type="Float64" Name="Magnetic_flux_density_norm_@_t=2E-4" Format="ascii">
2.4039087255819786E-4
2.3453398795306556E-4
0.07028645792615965
0.06678530859875438
</DataArray>
<DataArray type="Float64" Name="Magnetic_flux_density_norm_@_t=2.5E-4" Format="ascii">
2.3321817909439216E-4
2.2755673696885667E-4
0.07186592837155205
0.06829051219711293
</DataArray>
<DataArray type="Float64" Name="Magnetic_flux_density_norm_@_t=3E-4" Format="ascii">
2.2617754534312346E-4
2.2070762267617424E-4
0.07341983357930174
0.06976810356919314
</DataArray>
<DataArray type="Float64" Name="Magnetic_flux_density_norm_@_t=3.5E-4" Format="ascii">
2.195580952933349E-4
2.1426768674208304E-4
0.07494674342597124
0.07121606175762982
</DataArray>
<DataArray type="Float64" Name="Magnetic_flux_density_norm_@_t=4E-4" Format="ascii">
2.1373908824323697E-4
2.0860585488254317E-4
0.07645568311124507
0.07264985312205893
</DataArray>
<DataArray type="Float64" Name="Magnetic_flux_density_norm_@_t=4.5E-4" Format="ascii">
2.0893392246315479E-4
2.0392972224948393E-4
0.07794737352122423
0.0740701817570325
</DataArray>
<DataArray type="Float64" Name="Magnetic_flux_density_norm_@_t=5E-4" Format="ascii">
2.053613375252121E-4
2.004519931162769E-4
0.07942798521761707
0.07548683470936221
</DataArray>
<DataArray type="Float64" Name="Magnetic_flux_density_norm_@_t=5.5E-4" Format="ascii">
2.0312371952441863E-4
1.9827255639977796E-4
0.08089656373686284
0.07689833459136458
</DataArray>
<DataArray type="Float64" Name="Magnetic_flux_density_norm_@_t=6E-4" Format="ascii">
2.02098040178694E-4
1.97271860736922E-4
0.08235297170962487
0.07830390539024033
</DataArray>
<DataArray type="Float64" Name="Magnetic_flux_density_norm_@_t=6.5E-4" Format="ascii">
2.0208551760054734E-4
1.9725712870479552E-4
0.08379646545952614
0.07970173732877578
</DataArray>
<DataArray type="Float64" Name="Magnetic_flux_density_norm_@_t=7E-4" Format="ascii">
2.028132817507813E-4
1.9796299948810688E-4
0.08522469340682677
0.0810870938706923
</DataArray>
<DataArray type="Float64" Name="Magnetic_flux_density_norm_@_t=7.5E-4" Format="ascii">
2.0408981659422826E-4
1.9920344904398462E-4
0.08663965541244843
0.08246252687274404
</DataArray>
<DataArray type="Float64" Name="Magnetic_flux_density_norm_@_t=8E-4" Format="ascii">
2.0571842644474253E-4
2.0078708263094903E-4
0.0880379734593411
0.08382202851153397
</DataArray>
<DataArray type="Float64" Name="Magnetic_flux_density_norm_@_t=8.5E-4" Format="ascii">
2.0761749301978635E-4
2.0263435585781114E-4
0.08942246484006826
0.08516960216189084
</DataArray>
<DataArray type="Float64" Name="Magnetic_flux_density_norm_@_t=9E-4" Format="ascii">
2.097248667653672E-4
2.0468465949470722E-4
0.0907899357040165
0.08650071100495024
</DataArray>
<DataArray type="Float64" Name="Magnetic_flux_density_norm_@_t=9.5E-4" Format="ascii">
2.1209590696572576E-4
2.0699153853765282E-4
0.09214287600216144
0.08781898337112849
</DataArray>
<DataArray type="Float64" Name="Magnetic_flux_density_norm_@_t=0.001" Format="ascii">
2.146150513485717E-4
2.0944258518133056E-4
0.09347739416383231
0.0891182673304158
</DataArray>
<DataArray type="Float64" Name="Magnetic_flux_density_norm_@_t=0.00105" Format="ascii">
2.17421497900253E-4
2.1217301064331638E-4
0.09479686375651274
0.09040445092232072
</DataArray>
<DataArray type="Float64" Name="Magnetic_flux_density_norm_@_t=0.0011" Format="ascii">
2.2034080305884498E-4
2.1501345006936975E-4
0.09609623425760128
0.09166848566183272
</DataArray>
<DataArray type="Float64" Name="Magnetic_flux_density_norm_@_t=0.00115" Format="ascii">
2.2346109394498912E-4
2.180496489480362E-4
0.09737860452783521
0.0929174328881234
</DataArray>
<DataArray type="Float64" Name="Magnetic_flux_density_norm_@_t=0.0012" Format="ascii">
2.265681162236192E-4
2.2107366868807064E-4
0.09863534104107903
0.0941368008250957
</DataArray>
<DataArray type="Float64" Name="Magnetic_flux_density_norm_@_t=0.00125" Format="ascii">
2.2963277658736526E-4
2.240574791057615E-4
0.09986640989587019
0.09532932757227106
</DataArray>
<DataArray type="Float64" Name="Magnetic_flux_density_norm_@_t=0.0013" Format="ascii">
2.3243190129177573E-4
2.2678443170219973E-4
0.10106414422679409
0.09648337589940742
</DataArray>
<DataArray type="Float64" Name="Magnetic_flux_density_norm_@_t=0.00135" Format="ascii">
2.3481919921942976E-4
2.291121283330108E-4
0.1022262097512277
0.09759762329898447
</DataArray>
<DataArray type="Float64" Name="Magnetic_flux_density_norm_@_t=0.0014" Format="ascii">
2.3663559808602928E-4
2.308860396203704E-4
0.10335096328320732
0.09867038769968231
</DataArray>
<DataArray type="Float64" Name="Magnetic_flux_density_norm_@_t=0.00145" Format="ascii">
2.3769228373804734E-4
2.319223072554082E-4
0.10443903694296136
0.09970333257229205
</DataArray>
<DataArray type="Float64" Name="Magnetic_flux_density_norm_@_t=0.0015" Format="ascii">
2.3786775664652677E-4
2.321023953324705E-4
0.10549481697076085
0.10070455855554639
</DataArray>
<DataArray type="Float64" Name="Magnetic_flux_density_norm_@_t=0.00155" Format="ascii">
2.3706138703450546E-4
2.3132784718136158E-4
0.10651970586874414
0.10167626266786675
</DataArray>
<DataArray type="Float64" Name="Magnetic_flux_density_norm_@_t=0.0016" Format="ascii">
2.351269991416867E-4
2.2945595904064415E-4
0.10752236542538714
0.10263269194979521
</DataArray>
<DataArray type="Float64" Name="Magnetic_flux_density_norm_@_t=0.00165" Format="ascii">
2.3224117678088862E-4
2.2665835401702769E-4
0.10849835010962065
0.1035651798122914
</DataArray>
<DataArray type="Float64" Name="Magnetic_flux_density_norm_@_t=0.0017" Format="ascii">
2.2831221120180558E-4
2.228451558585721E-4
0.109457293523414
0.10448962980353543
</DataArray>
<DataArray type="Float64" Name="Magnetic_flux_density_norm_@_t=0.00175" Format="ascii">
2.2365773513480136E-4
2.1832526261388459E-4
0.11039526337939225
0.10539902671587396
</DataArray>
<DataArray type="Float64" Name="Magnetic_flux_density_norm_@_t=0.0018" Format="ascii">
2.1846102382847457E-4
2.132766836078439E-4
0.11131561597149564
0.10629636128659853
</DataArray>
<DataArray type="Float64" Name="Magnetic_flux_density_norm_@_t=0.00185" Format="ascii">
2.1309827286266017E-4
2.080653505515033E-4
0.11221501654217213
0.10717622022586058
</DataArray>
<DataArray type="Float64" Name="Magnetic_flux_density_norm_@_t=0.0019" Format="ascii">
2.0782259606224958E-4
2.0293713524708457E-4
0.11309268918415934
0.10803606289056496
</DataArray>
<DataArray type="Float64" Name="Magnetic_flux_density_norm_@_t=0.00195" Format="ascii">
2.028611901672931E-4
1.9811307341886423E-4
0.11394634774316414
0.10887293825245728
</DataArray>
<DataArray type="Float64" Name="Magnetic_flux_density_norm_@_t=0.002" Format="ascii">
1.9861394906385175E-4
1.9398189667929367E-4
0.11477020920163504
0.10967785579595371
</DataArray>
<DataArray type="Float64" Name="Magnetic_flux_density_norm_@_t=0.00205" Format="ascii">
1.952094569728138E-4
1.906688001485751E-4
0.11556356929130855
0.11045143819846864
</DataArray>
<DataArray type="Float64" Name="Magnetic_flux_density_norm_@_t=0.0021" Format="ascii">
1.9304027718163854E-4
1.8855565142221345E-4
0.11631599316954629
0.1111778864780876
</DataArray>
<DataArray type="Float64" Name="Magnetic_flux_density_norm_@_t=0.00215" Format="ascii">
1.9208214408073998E-4
1.8761908244758325E-4
0.11703375281834577
0.11186880001350757
</DataArray>
<DataArray type="Float64" Name="Magnetic_flux_density_norm_@_t=0.0022" Format="ascii">
1.9268278231586778E-4
1.8819734768273208E-4
0.11770575980303032
0.11250751318746517
</DataArray>
<DataArray type="Float64" Name="Magnetic_flux_density_norm_@_t=0.00225" Format="ascii">
1.9460718418584525E-4
1.900622822238346E-4
0.11834472472815288
0.11311443988078859
</DataArray>
<DataArray type="Float64" Name="Magnetic_flux_density_norm_@_t=0.0023" Format="ascii">
1.9777598612061908E-4
1.9313709143935334E-4
0.11894212405446403
0.11367711980787445
</DataArray>
<DataArray type="Float64" Name="Magnetic_flux_density_norm_@_t=0.00235" Format="ascii">
2.0171443260723752E-4
1.9696066441333006E-4
0.11951070291164033
0.11421531694349765
</DataArray>
<DataArray type="Float64" Name="Magnetic_flux_density_norm_@_t=0.0024" Format="ascii">
2.0631555159455873E-4
2.0142895464889596E-4
0.12004790806885346
0.11472533448161756
</DataArray>
<DataArray type="Float64" Name="Magnetic_flux_density_norm_@_t=0.00245" Format="ascii">
2.1126430021861612E-4
2.0623593604065832E-4
0.12056144252809609
0.1152188710779255
</DataArray>
<DataArray type="Float64" Name="Magnetic_flux_density_norm_@_t=0.0025" Format="ascii">
2.1641593103882304E-4
2.112407803652838E-4
0.12105070665316549
0.1156945855575994
</DataArray>
<DataArray type="Float64" Name="Magnetic_flux_density_norm_@_t=0.00255" Format="ascii">
2.2168577398973556E-4
2.1636100158432302E-4
0.12151883580416138
0.11615634661944219
</DataArray>
<DataArray type="Float64" Name="Magnetic_flux_density_norm_@_t=0.0026" Format="ascii">
2.2703718851342126E-4
2.2156087378763373E-4
0.12196342052995494
0.11659945491761506
</DataArray>
<DataArray type="Float64" Name="Magnetic_flux_density_norm_@_t=0.00265" Format="ascii">
2.3240241359341946E-4
2.2677433283702924E-4
0.12238576249187809
0.11702376078522103
</DataArray>
<DataArray type="Float64" Name="Magnetic_flux_density_norm_@_t=0.0027" Format="ascii">
2.3779302959961327E-4
2.3201256638912717E-4
0.12278347496169316
0.11742557945838544
</DataArray>
<DataArray type="Float64" Name="Magnetic_flux_density_norm_@_t=0.00275" Format="ascii">
2.431443453341437E-4
2.372126267008016E-4
0.12315579424205951
0.11780234386166977
</DataArray>
<DataArray type="Float64" Name="Magnetic_flux_density_norm_@_t=0.0028" Format="ascii">
2.484449528968317E-4
2.423635267705671E-4
0.12349946174337001
0.11815015567383308
</DataArray>
<DataArray type="Float64" Name="Magnetic_flux_density_norm_@_t=0.00285" Format="ascii">
2.5356010902971896E-4
2.473345229484948E-4
0.12380972414860332
0.11846194855788339
</DataArray>
<DataArray type="Float64" Name="Magnetic_flux_density_norm_@_t=0.0029" Format="ascii">
2.5838914153200165E-4
2.5202791395322955E-4
0.1240851090736022
0.11873703005064498
</DataArray>
<DataArray type="Float64" Name="Magnetic_flux_density_norm_@_t=0.00295" Format="ascii">
2.627551033131499E-4
2.562721570560277E-4
0.12431856941983664
0.11896511718234275
</DataArray>
<DataArray type="Float64" Name="Magnetic_flux_density_norm_@_t=0.003" Format="ascii">
2.6645401514126054E-4
2.598687455233412E-4
0.12451537650111554
0.11915567786105632
</DataArray>
<DataArray type="Float64" Name="Magnetic_flux_density_norm_@_t=0.00305" Format="ascii">
2.693792514681782E-4
2.627142567817311E-4
0.1246665602650575
0.11929462479023871
</DataArray>
<DataArray type="Float64" Name="Magnetic_flux_density_norm_@_t=0.0031" Format="ascii">
2.712746909045419E-4
2.6455917889039917E-4
0.12478311860198783
0.11940052048164301
</DataArray>
<DataArray type="Float64" Name="Magnetic_flux_density_norm_@_t=0.00315" Format="ascii">
2.722014659569409E-4
2.6546298456507086E-4
0.12485403097488638
0.11945661949865888
</DataArray>
<DataArray type="Float64" Name="Magnetic_flux_density_norm_@_t=0.0032" Format="ascii">
2.7186418495137466E-4
2.651376678182646E-4
0.12489229458801214
0.11948377223088791
</DataArray>
<DataArray type="Float64" Name="Magnetic_flux_density_norm_@_t=0.00325" Format="ascii">
2.702907639442855E-4
2.6360999589701014E-4
0.12489340972104605
0.11947540310202973
</DataArray>
<DataArray type="Float64" Name="Magnetic_flux_density_norm_@_t=0.0033" Format="ascii">
2.673469796464982E-4
2.607491121644947E-4
0.12486642006377478
0.119445453203435
</DataArray>
</PointData>
<CellData/>
<Points>
<DataArray type="Float64" NumberOfComponents="3" Format="ascii">
10.777046113849346 10.433373234959282 0
7.499999999999997 12.99038105676657 0
61.72868096398112 4.583450331635481 0
61.79962574894113 3.772547728934394 0
</DataArray>
</Points>
<Cells>
<DataArray type="Int32" Name="connectivity" Format="ascii">
0 1 2
3 0 4
5307 5311 5312
5307 5312 5310
</DataArray>
<DataArray type="Int32" Name="offsets" Format="ascii">
3 6 9 12
15 18 21 24
24867 24870 24873 24876
24879
</DataArray>
<DataArray type="UInt8" Name="types" Format="ascii">
5 5 5 5 5 5 5 5 5 5 5 5 5 5 5 5
5 5 5 5 5 5 5 5 5 5 5 5 5 5 5 5
5 5 5 5 5 5 5 5 5 5 5 5 5 5 5 5
5 5 5 5 5
</DataArray>
</Cells>
</Piece>
</UnstructuredGrid>
</VTKFile>
