<?xml version="1.0" encoding="UTF-8"?>
<VTKFile type="UnstructuredGrid" version="0.1" byte_order="LittleEndian">
<UnstructuredGrid>
<Piece NumberOfPoints="5313" NumberOfCells="8293">
<PointData>
<DataArray type="Float64" Name="Magnetic_flux_density_norm_@_t" Format="ascii">
2.702907639442855E-4
2.6360999589701014E-4
1.6439293610493228E-4
2.736557921011249E-4
1.6869468487924072E-4
1.9168051565603296E-4
2.725655962969846E-4
1.7603564265518062E-4
2.636406664254635E-4
0.050936559958351814
0.05641395719440676
0.0317886844486822
0.05145050019869196
0.06473734242186704
0.039013146589622974
0.03843629085925987
0.047084886729382776
0.024752043426359765
0.11680828799513228
0.18132856898091773
0.13779164756712683
0.10341810519240179
0.10347656046640782
0.11782565692896711
0.09640505170256089
0.09435427869402148
0.10912463266415316
0.11230591853221449
0.11830691990322773
0.11930795306412326
0.11031276209874327
0.10531310387996429
0.10427285667291102
0.09113598127170383
0.08895437748297393
0.0953912193122785
0.08593089145852938
0.08508384193356566
0.0825185986383457
0.0832272408009434
0.08198906275044548
0.08315232992653111
0.11915363897163685
0.14733390827445644
0.0823482495039733
0.08476779089574658
0.08481097517873189
0.08827035742203605
0.08844683478863805
0.1503754122320835
0.27044657597344435
0.0956443871086371
1.3149944719802618E-4
8.12441025263942E-5
3.551826806105806E-5
1.1692204780381747E-4
7.22428014482107E-7
3.748739825017446E-5
1.3253198767817337E-4
0.19012386315870453
0.28503800813327973
0.2752096021600687
0.17245929595441584
0.04064386417451351
0.027111429085093678
0.13533057972600998
0.16510810943119206
0.18173489176785107
0.15235246907379782
0.1413216624947979
0.04127921499902795
0.11842831192279606
0.11098760963745402
0.07576279429826098
0.05708304553381506
0.032209124020088076
0.12833124017969735
0.12150319969024938
0.12132910854326362
0.12326333702670167
0.05101456772452947
0.08622409440440984
0.06735934488226698
0.11052327478082344
0.052960846153763924
0.11783303213016542
0.10807524310545498
0.10059101327896136
0.06633739041531109
0.08030223312640543
0.09986200990032891
0.06894684230936576
0.10583254312194545
0.0991210425552833
0.08851378556245597
0.07832339925808161
0.09226825579236697
0.07982164048740621
0.09707130292581695
0.09275357306268467
0.08580829055635046
0.08974304049799646
0.08513983852011914
0.09145339085603166
0.08916317242126642
0.08710358681269027
0.08614237279673422
0.08801073598548319
0.08714791951342053
0.08562188762313987
0.08471470788376671
0.0855673924505752
0.08362561865967912
0.08214210667981485
0.08322057695617714
0.08100302442714231
0.07882668826767593
0.08055011667004158
0.07801057614483681
0.07491107671803378
0.07574700059948966
0.07734922714333864
0.07363356349060513
0.07082521555345843
0.06617166934237079
0.0697771361821091
0.06733637715665752
0.05637186572856139
0.04885614462875174
0.04395815152948843
0.05411867801207853
0.042665878421165974
0.038411005344685396
0.035568488033757416
0.028131162668541366
0.026009551074724968
0.029564172181116854
0.025232384879440385
0.019851493134639502
0.049084944444419965
0.018916031593704325
0.01587150391428269
0.014339350777838378
0.04164667329817546
0.03459943189756899
0.022816743299153643
0.029750897066045598
0.024011147968800967
0.019411584052246442
0.015616431052911606
0.03840415890128922
0.030194507786851833
0.02936951345504819
0.02558120324977867
0.02230773629695239
0.01950641443695171
0.037436341980507895
0.03136252638709923
0.02887475902075917
0.0261486292008966
0.02541320583359768
0.03796480085484357
0.03242157590751555
0.028634762064364504
0.027412704746555158
0.04068669725570566
0.034541996072675274
0.037416405159461916
0.04159681381287056
0.04760393875300137
0.047311934754122764
0.052225893244694156
0.04258909490589694
0.05434451891548611
0.06500654550725765
0.0654905686708466
0.06673480478339902
0.06354505908235723
0.06791807643350235
0.07056762046153667
0.07350211548653443
0.07405915467369133
0.07544891824590057
0.07703705333721449
0.0717794420151975
0.07544597284935504
0.07770026698988819
0.07946828625144901
0.08198935281256678
0.08237106870527844
0.08132094249644913
0.07854079091203287
0.0804386316934272
0.08236930321835091
0.08301865164486578
0.08203700074926368
0.08109012791026506
0.08352302040256436
0.08229162731511883
0.08458902019807503
0.0844454965486893
0.07956151668263887
0.07919252430938406
0.08692047199207402
0.08416219325171304
0.08797617106958192
0.07416371546194771
0.08126025400039555
0.07297003244471244
0.09275934749084458
0.0883690546104106
0.09536944275705263
0.08585159656850143
0.06539612427792243
0.07515274965679565
0.06411941536331907
0.10171874381381583
0.1053198345287412
0.09818108893160508
0.11305593503540448
0.0800872389617819
0.09289579624721515
0.05208858781896892
0.06576357642841756
0.053973844238718524
0.11151778790200129
0.11729158535111804
0.1371590341453013
0.07085962924748425
0.11220213701063983
0.09091701223569194
0.03551025794722712
0.053517227671449986
0.09958429551906778
0.1320522846990936
0.05968198502949083
0.1580154836161765
0.17553464302214006
0.1530300558216174
0.07981826057022011
0.1138000318630108
0.03881095942392649
0.1274917022899281
0.059623753536546566
0.28597566669517055
0.2486611519705558
0.16328036417449265
0.09843164668121579
0.14584782292905232
0.21641211010442313
0.22649655822259004
0.04173204703445418
0.027731979007438474
0.038165391186220275
0.12789569831797695
0.12879956677376359
0.06736740674268374
0.08440392480213439
0.09537613109129735
0.12281451934647578
0.15051746930762833
0.12421595420755042
0.0258314985878369
0.05269096550021417
0.04391508849602759
0.09882989824539237
0.07380569906194438
0.1058719122684691
0.11152077711592821
0.10638401708049328
0.04833295377859114
0.09266109694186317
0.06108448967853375
0.0801939295460623
0.09528833822014297
0.10407079637755945
0.09604112852517165
0.06508609725981256
0.08570156587068195
0.07543790410379558
0.08910488342570778
0.09432768531328722
0.08985530871871616
0.07689468977503162
0.08296898533061954
0.08661912046734485
0.08848899773611967
0.08622464134254149
0.08249266877578161
0.08434504787049857
0.08403207052874044
0.08499608796361578
0.08327902050975008
0.08231281247993529
0.08245672011678658
0.08156565903759207
0.08059994340957842
0.07990362779677095
0.07856967240178518
0.07864607875086456
0.0766826675213807
0.07683544165959069
0.07510124714321009
0.07477318693138224
0.07582654298432097
0.07095969879412803
0.06240990785235575
0.06441842563303071
0.062605413845126
0.060686656123562
0.06283757863547322
0.05416581187948035
0.049661867779906436
0.04995999265743663
0.054228822100650165
0.04646916854351107
0.040455814619006596
0.04213815193887419
0.05017973518275824
0.03439471827769
0.041259727729252675
0.048845719702618105
0.032271178433361185
0.04126571548502105
0.049990781422701344
0.03427057729011084
0.04201352330347639
0.046286546149877095
0.053873167769012464
0.04022015939437251
0.0494383913424596
0.05391555088687729
0.06231821710628124
0.06245657557190036
0.06367104858962934
0.04928781736422849
0.060303856972074805
0.06860472096177463
0.07546323048980819
0.0747519954731299
0.07648353378782882
0.06186261432252336
0.07634795380642248
0.07836512021508499
0.07974698041350857
0.07183713708494077
0.05881350365477547
0.0733532612813889
0.06333609256059507
0.07439522383646774
0.07844884506491627
0.08057397503373813
0.08218367092374976
0.07943167497098087
0.08041673073774608
0.08326850831881576
0.08344823107947365
0.08176889156518956
0.07453401261202386
0.08892994717348879
0.06671916223991341
0.05528049579016112
0.05654300277318534
0.08424915854965133
0.08366130864312922
0.08361166791744361
0.08281029492356468
0.08168968752651568
0.08545951720578877
0.08570033682796277
0.09144245669701995
0.10518338522104531
0.07925188647885281
0.09814125469322495
0.06256280998547936
0.033110151322094
0.0853816762017996
0.08468786411738115
0.08989313310753737
0.09987121795732579
0.11371197350290412
0.1302752747861184
0.11959074954966042
0.08730844757233562
0.12167492926827726
0.05772298307063526
0.08884861763372666
0.10773204795353179
0.09633510995279375
0.15618826257285132
0.142178111589774
0.12437555776247992
0.11825258211009416
0.15749677473504795
0.18581079973725179
0.10709656812184028
0.1807622948796397
0.16455483988810313
0.13635327780629528
0.09294713714026359
0.2704170126727834
0.3186120099546684
0.1404101591341053
0.02689962781872938
0.017484610938619943
0.18044565292460163
0.2676197297282097
0.250538328140579
0.16935736131659726
0.1745259618947876
0.023216047038021735
0.01328364522449409
0.14868244414311846
0.1577124304978527
0.10286380883693415
0.09518412937822511
0.06565218241631343
0.03593752740591007
0.04890427617571295
0.1435244507856552
0.14048867524558153
0.1283969914881268
0.033786639717588815
0.10924713915788013
0.07342939313285794
0.05187611996456893
0.11616763088687125
0.11671944659501836
0.11263794308693525
0.05590140086295769
0.09277651262978015
0.07302447826879956
0.10160398060335141
0.10348571190298606
0.10132348287988265
0.0759940469070804
0.08869572245853667
0.09652893943144718
0.09584998786798503
0.094807163721586
0.0877623612594457
0.09170358585305939
0.09162447048992467
0.09065998235512308
0.09007565364103254
0.08983441087440663
0.0883675251384868
0.08775705273509427
0.08698427984019277
0.08465342331663489
0.08874206244892806
0.0767965552080405
0.07987301577688025
0.07881370604545428
0.07721337684665125
0.07598559712231065
0.07956426699740106
0.0727199557067498
0.07062822070363348
0.066324200745913
0.06771016510805315
0.07199475135297295
0.05850695382934759
0.062355225264402764
0.06692147609649973
0.07490481601602313
0.07537895556624283
0.05163064165042421
0.07749289884423148
0.07382284170043756
0.05296730170937174
0.05838689114453006
0.06552819005227063
0.09272891834433412
0.08885710276134351
0.08421151716179677
0.08112682232130468
0.07873456690170842
0.09892909747029101
0.11569165781692343
0.05097230676641249
0.05824723123532605
0.06645420223652973
0.10028942760914755
0.09140179604718776
0.08910508388933669
0.08576576515808843
0.08602249779537334
0.08851490477543877
0.08831184506016676
0.11437073886882551
0.13915203237352136
0.11120592941326536
0.1290508400856886
0.14052292551012346
0.11290873629813795
0.11164760664971211
0.16056132507950197
0.14563729537363232
0.16759498179994015
0.1377230493650999
0.18042718166338667
0.060769501717994744
0.0928343392567988
0.06183841221778085
0.0709966266262881
0.06668367800742665
0.06933803364439255
0.07129101580591488
0.07788077240135913
0.07430053590829812
0.07674437091134409
0.052645928075938216
0.09735050560295659
0.09086436393064486
0.088855958474389
0.08821808187782813
0.09053059597391214
0.1051048183619841
0.10394381805372394
0.10752977729105011
0.08751830936616194
0.08664065131629366
0.0777094016385501
0.08607517419356403
0.250171024430342
0.2723329311801277
0.05777539988306616
0.06501374937165333
0.07526750580928941
0.09471478291853029
0.08993626137663015
0.10039328653809011
0.08209152071247329
0.08462554714897569
0.0852629485554709
0.08703328691142968
0.07454289250910134
0.0933600537802128
0.08854437247810898
0.08420724906863344
0.027900497126833478
0.04509136110568555
0.025266393574418067
0.02116426261565249
0.01234658525627972
0.03245040179033337
0.036152768706265576
0.036736935331465215
0.03847434008389649
0.026403393094047312
0.005774629970648065
0.017450498013110115
0.04298949383898668
0.0474236888748533
0.033062926638037
0.03885753995072567
0.027275323175920824
0.019317338810088302
0.05493058485649033
0.11156147103795457
0.07557779936817985
0.06422805889763365
0.04536670068110812
0.03720705684551446
0.030514604516299282
0.05958198834716582
0.0593224508253451
0.05409008836306708
0.04635619331991974
0.04060741864611745
0.05442864870774825
0.054586666488165035
0.051573685799434256
0.04800068867830573
0.05273594558849737
0.05502048015223001
0.050837256851188235
0.052038537500234947
0.04755862144089265
0.05132240613541072
0.05022921412529247
0.049868307585567616
0.05055293704900031
0.0521953773551361
0.04523867753378339
0.048362193319974434
0.12744328054847825
0.21941952146599564
0.10173315567197327
0.06325206017374325
0.04763730485894655
0.0501747569505581
0.046639243250901664
0.10414697325999749
0.094532045241263
0.09554281558952298
0.06681579594209601
0.07637132134099149
0.03128989311156659
0.07830854886592188
0.0392291294785131
0.060203209549074446
0.04633482269225402
0.04929348842272762
0.04313103832636178
0.06494253976307758
0.08974489721857291
0.07627254652106245
0.07615190373894774
0.04999317904564752
0.051168458028743403
0.05213558691493601
0.05147341633415542
0.05449880605924653
0.054800942327989606
0.05075032651773562
0.05266389406645452
0.052441271410817995
0.04539909286243715
0.04898914698578032
0.04535542183461288
0.049258654094183875
0.04790157095559545
0.05011101935256871
0.047597179745187804
0.04630511389518426
0.04673011089545063
0.04193540823533431
0.06221764210415017
0.07112243698428848
0.08139867034391467
0.05187582054470553
0.049626330159421805
0.05532971466286033
0.051912213472573764
0.045133526857029094
0.04131299298682551
0.04190677729217557
0.04307238550551507
0.0597414154427621
0.05050636499897843
0.050165975513865535
0.10817278258778279
0.09430241447087162
0.09147725200734436
0.08631189343984526
0.08127458461304692
0.07962173204147356
0.08091936547552099
0.08516499678010525
2.187882191851706
2.105773164914958
2.176562502228093
2.119046500994269
2.021063027773214
1.963637995615178
1.7846520654416322
1.7307948691825867
1.2958208518883374
1.06428751499835
0.9271625686131078
1.675779400065867
1.7697998638393142
1.4044999495787738
1.241587971104132
1.695833588566974
0.6841348090932247
0.7565423846933488
1.1423952678407596
1.5155818870893083
0.9902615352816064
0.860149767465837
0.8657049440343629
1.8045657037451246
1.90251201204
2.0749159784846576
2.1212894935340993
1.9936051681834501
1.9354195715312361
1.3519913475138774
1.2432924857524095
1.0407363740369935
0.9765882069377216
0.8700285839686642
0.8561557005631668
0.807184772346175
2.1379059575702506
2.0907940327231866
1.8511156825609643
1.669413696223082
0.690454149409803
0.6247092881866949
0.6824135563685815
0.6904264199713984
0.7176974295760663
0.730310400638907
1.9053618959036
1.6473618755877821
1.3777566911975339
1.2674017197226
0.887543769414439
1.178882934339043
0.9034704814607073
2.1837164035570553
2.148381072565633
2.117540181270111
2.03644159123214
1.9717779207731754
1.891703523331221
1.746506792618385
1.6251434519987307
1.8751524457376603
1.8659277506748275
1.8202077493987832
1.5788424378854742
1.3984451094284422
1.7170447548653425
1.6127945954811247
1.0998889877619715
1.0411563935959103
0.7989512605685629
0.8381911660046902
0.8788600944511717
0.8337104757591834
0.938386763612017
1.804597735643665
1.440256792041307
1.8718412010581662
1.8863187598561313
1.0862649752265232
0.9530457007397217
0.9670608726815647
0.9296600139120793
1.15006339239663
1.2591864176444834
1.8955503589534088
1.9348536908801008
0.8124012557772368
0.800938624536362
0.767147761352233
0.7415936177211456
0.7613198927540455
0.8132552313288203
0.8384586907253083
1.6117727788435459
1.4494619659693726
2.0024477337059534
2.0319280420575816
1.2900947163178456
1.1385178429882634
0.7717078227851041
0.7669503471890976
0.8237794659861851
0.8470123032366574
0.9294449789035194
0.9765120777319821
0.7040965457895071
0.6965075951192475
0.63489658684183
0.5224465569893441
1.9519828056490465
2.0605245781744848
1.77824809142853
0.5373882920468586
0.5119720825678377
0.49759050438337615
0.47782412491634113
0.5237987713348199
1.5517107682881752
1.4303303635097266
2.1154917522634094
2.068113396556807
1.9120242604491635
2.128403473798004
0.4409184219173394
0.47868877990076886
0.4041986156453861
0.437943414801887
1.2747995710360982
1.028707280608044
0.31402901093747076
0.5830797791739238
0.4358456002556243
1.819479924274879
1.718029961291803
0.2942605756696725
0.8699844919255977
1.4296060106786441
1.3576394350116363
1.1040237755858706
1.1347981284422206
0.760499720899003
0.8657705516601547
0.7423797014080294
0.9145707699255438
0.7257449188425521
0.660516718121731
0.18588986888846273
0.026291313851608426
0.24436617108301908
0.6645245609221598
0.7961904055722174
0.810941596345835
1.0155131503079786
0.291939347734285
0.33417605275632123
1.2223829265397645
1.5823301818141104
0.2797380676843881
0.21386021866125285
1.8156893096073723
1.8458423670371946
0.15736693423224432
0.016161748519374294
1.913607434743154
1.9752720637154706
2.0195209852831653
2.1202002118711585
2.16297226922855
2.128650575559728
1.880683983272492
1.7583574879340305
1.4566573402851466
1.3538743518941747
1.140736642171223
1.0594549411722498
0.7653536420629042
0.9296491027971344
0.685364243394346
0.7125204177585518
0.647975546161434
0.7172133536444569
0.6870419055327409
0.8781650290205939
0.9268508416106336
1.1997546182134884
1.6337648223276906
1.6102002604103767
1.8456240817363803
1.8992201916255675
2.0666259340843367
2.1184824983873027
2.2013197150913895
2.166446082629182
2.0147072088566653
1.9341310744633864
1.659583265266167
1.5692807222263598
1.3291718686470058
1.2700108855385566
1.0724588824806929
1.0164156845904566
0.8676012489304061
0.842349182117311
0.8373901221328783
0.7225987442169273
0.8546073626411327
0.7656572974129854
0.8457979559731696
1.0111891276118607
1.1719419529525397
1.2268713080855653
1.5794397329612604
1.0132886042223668
0.8194199476337475
1.179475977402557
1.5143570417763519
2.0386835916150448
1.625719988720166
1.7758631375953768
1.8196399193315538
2.1503763466556594
2.1588580979914425
2.0783498162477283
2.0017198742084954
1.935066327378755
2.087636414545341
0.7607629838222725
0.7858788708627066
0.5649038125815465
2.1826207359251155
1.8769042109361191
1.662468107719811
2.229646948460912
2.0850069852923916
1.9229347578762603
0.37038854473164884
0.36983172833398814
0.5516418837854508
0.4121389978928925
0.5215971565296417
1.5117543171480055
1.9977880420585639
1.3931682179512836
0.6919140865350462
1.7869627040030314
1.3420946331001176
0.26418902325157834
0.4579640098980205
0.4895053875312936
0.5575207526708674
1.2429074881528304
0.9349064081339066
0.7382313770509207
2.189304881416358
2.055337235636546
1.967243761623395
1.10020795471275
1.1713990115137791
0.8530508774560316
0.7347223825510656
0.6006222004834012
0.6024774892458302
0.5537059577713881
1.264689033690502
1.05069423803565
2.028857919709262
1.6003456582886089
1.3949649420074184
1.2110724633190164
0.43432770163814766
0.5136594782977472
0.7721172416176544
0.5456804232121908
0.6257979276630116
0.714326991447102
0.5679217208661388
1.040963915102059
0.6469879867807332
0.9171564021307116
0.7519466191749374
0.6536860951162755
0.5318067567786166
0.4469307791037655
0.4754644963023397
0.9924490955331638
0.8605802658766238
0.9236023751343592
0.684589244809459
2.1374691203969602
2.064345289436916
2.1149648699295605
1.8023242850906978
1.7014851546104262
1.2997040870079613
2.149162123052343
1.7455957338642236
1.559238637003981
1.4334586608317814
1.2882693333370707
1.1910736039027263
1.1611226432336448
0.7023456472542361
0.5195988791794648
0.5676702995293829
0.7721031311513151
0.6193925420471835
0.6881782331941234
0.6090028633586259
0.3005068578490722
0.6288929238890768
0.72980051713437
0.5341944620324635
0.5424124820545877
0.43599650318917754
0.32229470139762745
0.8019579676709743
0.6963507939222374
0.5076478043719317
0.6084781051904627
0.6173917622894102
0.5117524582823141
0.617620445071526
2.2225425856868672
2.0962257392516315
1.9721046625941145
1.9002706315416154
1.8672782002136694
1.2032093685640586
1.0043161280779618
0.6780159529682185
1.5958336628457033
1.4223235353592212
1.36214492193058
1.1263156882772964
1.0371717126120221
0.9631411287410133
0.7165153459163962
0.8326554841825488
0.6630629885006034
0.6011109567111668
0.5759982261093405
0.6065233126262543
0.7442486987419429
0.6668426881036048
0.632077574560425
0.14659190943461267
0.5916395505153469
0.5106801226594907
0.4521225243492764
0.3315503489394145
0.6608510492431913
0.585993689436992
0.31881996133443025
0.5481163478630683
1.8793905666335
0.5532355074564415
0.7459459371488882
0.5563016568155982
0.4095868678935844
0.8506216940119016
1.3021536203105661
0.9519606594113917
1.1014112964454894
1.918159215982129
1.0844739085127155
0.9778033379313246
0.8827685705120175
0.8337383743283825
0.7399513479309335
0.661014634759857
0.6242830528442446
0.6125133458954432
0.6315253820917506
0.7114711114703024
0.6592503741075328
0.2982618194608163
0.5156307196471235
0.4588672575459258
0.38391302506213615
0.5592863051508524
0.5105077290000258
0.5505027210973218
0.6111193379663983
0.24224149385566363
0.04715954544808725
0.6683775269475284
0.582782753025942
0.4664939492899229
0.35116720858493394
0.671006726882919
0.7447521486962532
0.7682707659200162
0.9972734106406214
0.8531792132015769
1.4900300840378027
0.9286493269471561
0.8466580029515803
0.7628962266043186
0.6874737298005485
0.6496373389589982
0.631684852907039
0.6390362271652557
0.678125559130843
0.6446765741229806
0.38186953114958194
0.46582995823097734
0.4248881084895153
0.4944018918129276
0.46598803327859883
0.6291199129514852
0.6544785457569927
0.28808547246473415
0.2089255933913627
0.1870728186121583
0.5326227713599802
0.3943110097013902
0.3361983693806544
0.5991642148012367
0.6531516674166742
0.747633538115135
1.2104365303601279
0.8120679765298795
0.7519482992037059
0.6888088966519563
0.633044636935469
0.6430289431928722
0.629270333378983
0.4218855822253135
0.4412245545695696
0.45804798527781143
0.4448392510613038
0.6627521422106537
0.6674201169040553
0.2860677835080648
0.25955324450969636
0.25898374446025946
0.42287390399010893
0.3382419289515436
0.49058137112440464
0.5581304913701456
0.7093386661167802
0.783219941823603
0.8902766219617676
0.731454579062516
0.6983971845346204
0.6764938643144028
0.6181566843630621
0.6056057001265377
0.6088489781634188
0.43351757317066664
0.43415436529237567
0.4373410303274919
0.43228100484789833
0.6662810766393795
0.6620215613531332
0.310551244159536
0.29639492932221645
0.2967592655014312
0.36807791645473525
0.4187337982786847
0.5670914507930008
0.5649646599440729
0.5802734804874404
0.5559117486387434
0.58343130889846
0.5706390953850367
0.6531027167345455
0.6088732075227988
0.6732024634905716
0.6782939294329093
0.6806280699053221
0.66782523633395
0.5752920634434605
0.5653761197833472
0.5882960491117936
0.5591629248549747
0.5684903483705633
0.5194968163339377
0.5726524245581217
0.5669818384784563
0.5240047607087813
0.5445484863725978
0.527020514049542
0.551145314654429
0.5247832449532391
0.5355556842529565
0.522099966058169
0.5249003628889437
0.5445520602639563
0.4290246155567036
0.4235554462676349
0.421706114767878
0.6511011768321074
0.6459576416891452
0.3341988063175482
0.3135766495229753
0.3178584996170796
0.33976173994624825
0.5632603640126015
0.5810268290100221
0.5470586494446842
0.6010555230321774
0.6214739613306388
0.32244762448228664
0.32731832478552475
0.6432619613099516
0.6265234927937219
0.5423834073579286
0.5218428303959614
0.5486725351247772
2.0883458537969024
1.7827121379472246
0.5403185286184681
0.556529758433591
0.5489191117623553
0.5232955757150889
0.5442626713120629
0.5139189628190219
0.5178716185985982
0.5419567919410277
0.4773254314114324
0.503400734802218
0.5013037830376609
0.5111242824786586
0.4998033061548261
0.5060305583650881
0.416144733012413
0.40846323705419296
0.4055478477323111
0.627389675669102
0.609167357037422
0.3161502869102197
0.3018279488821581
0.5519151174425132
0.5269915804365
0.5411869598357747
0.32654968135293416
0.3531714955506741
0.31752958688765365
0.6009798068418676
0.5824248163750212
0.5048856062835761
0.47650844338791654
0.5069336917347573
2.138066687098569
1.904140050189153
1.6618660312869824
1.8275606461501719
0.4513484133766517
0.42718628879606585
1.3504541585802994
0.5038255775279841
0.4867466823124698
0.4358036126477483
0.48331951757009356
0.46943160026969033
0.47556665330369075
0.39811091266438287
0.39124532169437165
0.3867652626433285
0.6304792845561868
0.3144764882075905
0.48568856350067546
0.33049811639944615
0.3423420652154374
0.29315901650902715
0.3167466226485127
0.5663304532874835
0.5250096500359599
0.37599037237044264
0.43198839208076156
0.4659430875448184
0.3534067374147654
0.4119227273832327
0.3809798833200481
0.34742830731388497
0.3199079532549589
0.2722629724352121
0.2590479518563908
0.24357572492740873
0.3050803334511957
0.29007676464849014
1.724258673689894
1.444134078690719
1.4565034199264382
0.39818580501857803
0.35891282459088497
0.40103381633665364
0.06498073740633134
0.45709567044722554
0.4429863332530947
0.41042144571540556
0.437100179043455
0.4305111212738278
0.39625441266115924
0.5573920757274902
0.3344958949424528
0.3640770888016716
0.3107106608026669
0.31574350552963576
0.5334243019330884
0.5141381679019049
0.4281533086185399
0.34878578569745883
0.3044354071944845
0.1693351510795489
0.22307046067512165
0.4075661957014629
0.3350696203043712
0.2784729485242729
0.3283363952795298
0.30229808279401577
1.4685465050235906
1.1949526625459208
1.2741314795505672
0.9890968562723929
1.0078158017810137
0.9347119232750686
0.34561571112753425
0.2598642018311082
0.3417405444708746
0.5477230552430331
0.3321060327801325
0.3778587450633648
0.2898997407090418
0.4689988086381084
0.42274935992712936
0.3209943117784595
0.29755350577021017
0.2849214719251257
0.32557849868378475
0.3478263073911024
0.3882691570908661
0.33598739077541834
1.1599201259827352
1.0640205507165958
0.921591734863237
0.8668125277715835
0.8620589477376736
0.8312132874929018
0.8057883431407141
0.6107635398678818
0.576270620109466
0.48855816267522556
0.4816291781482241
0.4634523534873134
0.4947857879019349
0.5475584908865504
0.3383567641227107
0.5071043799251945
0.4410364008460732
0.3440442068336382
0.40186654014424755
0.29613848693578443
0.36952480750302474
0.40707600393960225
0.2895792359781444
0.23582285192641014
0.3207966037738079
0.43536711628601626
0.35711505044183234
0.32371650384705697
0.6357221540202014
0.9343342779939542
0.8077045609595325
1.4996131364565943
0.49560544357383934
0.3917796854261805
0.9149679272705121
0.699822406355069
0.9610028633734364
0.8449841345608301
0.7885036713609307
0.78394910953606
0.747972935942772
0.6633832008388731
0.716117621562482
0.656482913005768
0.7282972527155746
0.4910900142421939
0.5203625023381068
0.5584832565487265
1.5970099659716694
1.7954683629459165
0.4337364972266296
0.368952146363132
0.4119575269842219
0.4336300623192136
0.47051794602881364
0.3099262500542775
0.48890355963858745
0.4149092091712309
0.3078351713550504
0.32814739121049513
0.38782817942869935
0.24967309349034586
0.1843868192243038
0.20590539679302955
0.39043040751300684
0.29371656264935425
0.1545194319030353
0.47437102378282736
0.2923974706512731
0.2012375925333555
0.6474171240532334
0.6840857445826495
0.6286072946420221
0.6082395532288122
0.6288712501603
0.6800581886172763
0.6531385917718239
0.35978112515605915
0.5527540487295571
0.5073566617262546
1.8605012156830867
0.33579303111881015
0.37852070964753687
0.4364268216685596
0.4443061163243202
0.3079474530227067
0.4922059245237663
0.31618873473230574
0.3903156310626462
0.4346229848502549
0.208196271751986
0.2536021822820373
0.23253775754895614
0.2679959604807679
0.3399367742065285
0.1515912016871402
0.20247756378559179
0.10685621350645062
0.5627300435917022
0.5174253806969571
0.5895768026666
0.5828918058733472
0.3008997647187871
0.5291220092180903
1.961438658555572
0.32335135951169347
0.5121018714650882
0.33909398155354625
0.429052545747242
0.26299548357791863
0.23268275703016253
0.27396191907171813
0.31102535039972246
0.16982808933430585
0.22856831342589407
0.5258781515384503
0.4781595111845412
0.5593022386636458
1.0182068811348202
1.0369270567710864
1.4347888056020652
1.2399442017774784
1.086317146604512
2.062860412079065
2.120934360708442
2.198893712553469
1.9524381314580936
2.1787382778954005
1.8325551679954026
1.4576446838776167
1.7624429400999813
0.34991865852716697
0.5614175856076246
0.4906569033732653
0.4000465375566698
0.3014024280859919
0.2281643687358835
0.17084856941348456
0.2921329521405048
0.33939239435918367
0.21888444822544706
0.9195083969314215
0.9452974579766683
0.8495807798853633
0.872753359524116
0.9900387440908655
1.0432167441494662
1.123801860853303
1.2982447530864472
1.5024849041556598
0.5516376395614232
0.6351132548303194
0.6174566690973299
0.6456495159712229
0.6549652838051662
0.735030734762087
0.3962567941614699
0.48993879312526395
0.37952250379492386
0.3035230717722804
0.28378438758919655
0.25943619110843025
0.3193400482874627
0.3441267991521369
0.8753200824642172
0.8201425178724967
0.7991737082656062
0.8262474841421922
0.7154371169735446
0.7399254923249723
0.6815656147010349
0.9471668314099723
1.0441030423273985
1.1900827863272334
0.5935933066999536
0.6072414814615914
0.47015396778321683
0.43864464369528805
0.40099419138199927
0.3199410868660625
0.3513335547131686
0.414062188925985
0.7769708164436201
0.7784273732358905
0.7645007003592325
0.7541996912707071
0.7867179677718359
0.7876545647467624
0.7345821315157677
0.7070109383880332
0.8749906498385536
0.6536329593886808
0.4565594967439465
0.3089885646147333
0.5142306073201498
1.0210296802347771
0.5106817925618042
0.49609729686928805
0.6113102252715977
0.43687313933637634
0.38174377137616156
0.4256589502510321
0.4402749562496287
0.6077621788788713
0.7109055496735945
0.7563893491193624
0.7536690930563714
0.7408857541439812
0.2850184725043028
0.4644323645041264
0.07579507780217422
0.2760227422998809
0.4406672461411268
0.7183169037761908
0.583979631301893
0.6226775833305713
0.637950849143409
0.5802810828069872
0.5443716771653164
0.45494954216058153
0.47055606545019407
0.4320517891954256
0.6126137052475547
0.7090465352124453
0.7466167656912153
0.27739352467248857
0.42651662305724825
0.48226189486375254
0.5468715532097883
0.651896713485486
0.664848199115054
0.6719603962114067
0.6453257556739741
0.6112995564240864
0.491693615704804
0.5053912432216044
0.47625258693722167
0.6893097272318232
0.6359391788136713
0.976044624636964
0.6863703029411679
0.6700170350541725
0.5320927927029673
0.5467923452589757
0.5216625207923138