<?xml version="1.0" encoding="UTF-8"?>
<VTKFile type="UnstructuredGrid" version="0.1" byte_order="LittleEndian">
<UnstructuredGrid>
<Piece NumberOfPoints="5313" NumberOfCells="8293">
<PointData>
<DataArray type="Float64" Name="Magnetic_flux_density_norm_@_t" Format="ascii">
2.0312371952441863E-4
1.9827255639977796E-4
1.2362857503186845E-4
2.0583119480733548E-4
1.2688406520768532E-4
1.4418337278930137E-4
2.0521290426217528E-4
1.3243080971816508E-4
1.982883792008212E-4
0.04514710299921465
0.04941924979190023
0.029462803670294895
0.062327642776815385
0.08423191077783787
0.04495558101285227
0.03890523269012693
0.04713667777398219
0.02937782227037512
0.1125103353133078
0.17483654766575055
0.1329986947812418
0.1566480677619041
0.15523855767044542
0.17250453630607285
0.14550677194896602
0.1431193839145819
0.044525247748609144
0.04481517136893883
0.04929528945814232
0.04986433540994355
0.06663231517658655
0.04540165280341609
0.04441510167885162
0.060884207963318324
0.07382497060325799
0.05267642524255726
0.08077655712865407
0.10092708395829819
0.10450461419057373
0.1193574204641737
0.11637350353605014
0.12468671494991723
0.17055061031353733
0.19548359007050342
0.12147194342571806
0.1280360913488419
0.12748469463540618
0.1336800707731611
0.13363321344000714
0.1982883193726604
0.26865512545664105
0.04821448648443006
9.890232089480786E-5
6.112179002809032E-5
2.6688314558989136E-5
8.794699479272143E-5
6.975126090387387E-7
2.8199042544214176E-5
9.969321371351979E-5
0.17145263382763493
0.2743254261436851
0.24192114337302517
0.15978159646070847
0.03672730602182254
0.02462560774486792
0.132584617318244
0.14485006645941872
0.15214909155702416
0.13798883269888682
0.13171268272882522
0.03721288739037743
0.10101763324990139
0.08863468593689088
0.06506789808079934
0.05073201386057125
0.029172648485069497
0.1213286956907433
0.11218058887151505
0.10755662237767767
0.11181082781467379
0.04583190791392247
0.07596400787083954
0.060061980216887655
0.10068556752238722
0.04772525615912696
0.10947926216172653
0.09900015272799079
0.09040993744102808
0.059549735975508146
0.0719478804095349
0.09066918894752636
0.062078888185574686
0.09720095807125895
0.09037653126727252
0.0799045130594108
0.07056494912199056
0.08373683475534503
0.0721064735341947
0.08847961610012854
0.08438766190895637
0.07772309774017995
0.08153258509109426
0.07722143523399867
0.08321767787715934
0.08112309412503114
0.07920398541790725
0.07839650195909421
0.08014304287914269
0.0793778221434414
0.07808079827656908
0.07733889404898699
0.07807349539446871
0.07646744000934295
0.0752603411664554
0.07614620178859788
0.07432964981587516
0.07254222484561233
0.07396300076378186
0.07186962379327184
0.06929978787525706
0.0699951352005096
0.07132762572350611
0.06824033403720393
0.0658817374237124
0.06185998635375597
0.0650004146776094
0.06301677159643937
0.052933659843546865
0.046037458316951385
0.04145973120965608
0.05087004442147347
0.04032686917881888
0.036345919953292984
0.03369673718297845
0.026665237790845092
0.02467472739599581
0.028045031754699006
0.02395270993885169
0.018842302467413693
0.04633076703292421
0.018001704705135603
0.01508206456278983
0.013653653044327738
0.03946386441167791
0.032822686360364575
0.021685419987066485
0.02825439504188455
0.02285731636549869
0.018498135719278348
0.01490279799544853
0.03648671272556985
0.028715711094770096
0.027971185142199807
0.02438556796640225
0.02128863641834837
0.018637858700928153
0.03565190223217216
0.029901659249117356
0.027563535513789414
0.02498039325583458
0.024295444679127087
0.03624296158842914
0.03099022653605904
0.027379365831109077
0.026228471742188928
0.03894455272868335
0.0330697312860132
0.03586401715333125
0.039918479982131196
0.04574563832492312
0.04553825121683799
0.05039097142127245
0.04095402612121913
0.05248141963928322
0.0629776703541735
0.06361292004421766
0.06492221128871388
0.061617905155839287
0.0661471279648484
0.0689491234303248
0.07205696868114309
0.07265030735546325
0.07412545996071425
0.07581822256448002
0.07022719032758303
0.07411932918381033
0.07652327730758178
0.07841048639093275
0.08109771727694923
0.08146902877377306
0.08038105056826737
0.07741861920970762
0.07944876951716752
0.08153068344640275
0.08218783073798834
0.08101881669329529
0.0801526218685752
0.08280102324742038
0.08130457914750568
0.08396355468090966
0.08375960963492031
0.07819942543901122
0.07780034512082075
0.08658916378860922
0.08339317768337969
0.08774965700230607
0.07221227453509908
0.08007376297403666
0.07092038828271789
0.09322993867310875
0.08811434912239867
0.09619056807454414
0.08514555050722973
0.0627314350345203
0.07321930265358657
0.06136533132241671
0.10356733202683299
0.10784348835539599
0.09926518645303517
0.11667452198069754
0.07847114903657029
0.0928984113433539
0.04894211238498956
0.06284832007713338
0.050618312308756
0.11552755557422491
0.12265595346340842
0.14505625208291548
0.06792084753514417
0.1150846452014133
0.09035118899040283
0.03250564268387299
0.04956115335652944
0.10510381147903707
0.14110474109719287
0.055095554288169354
0.17107698797995846
0.1905902279441119
0.16299275342913164
0.07747871655398529
0.11631337767692558
0.03396627564521776
0.14049489819085678
0.052849468576689894
0.3182007138404663
0.2718342047467578
0.17712242991292518
0.09809753495916834
0.15251550656652307
0.191564204772184
0.24340996410521076
0.0490992269080788
0.03185820508278333
0.044384064199681536
0.14173317024983886
0.14861551761060335
0.08278586523179195
0.11068739735024181
0.11306074454151172
0.13314162180388184
0.1522024038990337
0.13122185958975816
0.02980821903580939
0.062139036837523164
0.05093192814687324
0.11135070141432042
0.08641803562248523
0.11577898705441138
0.11703474124300796
0.11466382411778564
0.055658232660869444
0.1032332364971212
0.07037032887407411
0.0911601458409869
0.10488306888039269
0.11179274732259088
0.10492260020239487
0.07421588958889196
0.09571030633002715
0.08528682957521909
0.09850591437454603
0.10313075204385058
0.09887895173299509
0.0864231401738617
0.0924349285485306
0.09577576964259446
0.09741726864643514
0.09512518695790512
0.09168779921671084
0.09335175555039064
0.09267906782648012
0.09368887828093064
0.09198503436887603
0.09063418528633502
0.09074595975510216
0.08972002918168805
0.0885250334849947
0.0876674608954705
0.08605398646001257
0.08614969751102798
0.0837796120036411
0.08396118343126159
0.08184631582480023
0.08149761669885566
0.08245898981764856
0.07711706939227875
0.06763428625889131
0.06972641217896633
0.06765155487535285
0.06545929026031891
0.0676983962867225
0.05821686193216804
0.05333908746985372
0.0535488999342452
0.05811302525280415
0.04969869905186846
0.043268326937905326
0.04500063169046944
0.05357931997081748
0.03669137239764859
0.0439731103986634
0.05199868370376579
0.034352795817829504
0.043883332353588454
0.05306474978162698
0.0364066198481497
0.044592011127149486
0.04905895458411363
0.05699793162815077
0.04262600640367269
0.05230438853400869
0.056898597555566775
0.0656412086751135
0.06559549060467015
0.06682835248998263
0.05204606559757955
0.06346059224060689
0.07184317812252566
0.07893821382932545
0.07809380368979889
0.07974660013344
0.06487300446518453
0.07961819857621327
0.08159071736244797
0.08293870973518737
0.07643066340854407
0.0635570418009706
0.07777896021681376
0.06868892271323479
0.07770275329304052
0.08166959835111602
0.08374187871913717
0.08532722957896412
0.08332628964125117
0.08418124413460759
0.08667066207875039
0.08678552769682883
0.08560933819150236
0.07930907362248625
0.09239426684902415
0.07237022058445854
0.06124609775301231
0.0626434633375353
0.08742044138318215
0.08682328606350133
0.08672614845429652
0.08591062613648977
0.08481881754283688
0.0886940917644074
0.0887722874590967
0.09409610242421017
0.106377204352192
0.08429631302023578
0.10128442154152424
0.06927952822773696
0.03844561324876875
0.08836764527618486
0.08767570793587005
0.0924526902180303
0.10108019571710301
0.1120973405023354
0.12727065892350065
0.12007119888151449
0.09253909089499325
0.1235375773179571
0.06703769594596337
0.09146329204184356
0.10723458476007547
0.09795524355547262
0.14946744210565835
0.13522854569168424
0.11918490297233225
0.11386855339605369
0.15313832206131622
0.17561157237794855
0.11244019749839478
0.17554173506429158
0.15350628362497523
0.12702939566494015
0.08623913976711099
0.2601516419717556
0.29011211567514095
0.12246239324182435
0.028442539062627746
0.018999101383975366
0.16255259797301128
0.25784810577341905
0.21950358240428533
0.1554258127341932
0.16298663322418058
0.02416792069421985
0.013950413983205508
0.12995957484313933
0.128900206107898
0.08890519614688552
0.07538845943959183
0.05943041164575876
0.03607330353341283
0.047335287969225884
0.13016868339164345
0.12980353451042892
0.11953474013284608
0.03409185642079731
0.09848088883087934
0.0679091319029452
0.05008100859827088
0.10663086529724475
0.10831078917220223
0.10526263466063308
0.05383977808823257
0.08562366681962037
0.06860348868532429
0.09423460206596018
0.09647062929726591
0.09479851551243289
0.07149257011487792
0.08276440629732525
0.0900114318016853
0.08957671679715047
0.08867351210542075
0.08207778178066956
0.08574914994728221
0.08580480332809799
0.08497757618667555
0.08433853249045205
0.08418577872762142
0.08294344034692704
0.08246505345087413
0.08168640348595077
0.07967463408046893
0.08362646915464367
0.07240191030009457
0.07543342972097401
0.07453175824263181
0.0730827050375431
0.07202636884116728
0.07553275633861951
0.0691024034057699
0.06723012549252988
0.06304070183885692
0.06454884880896913
0.06871112828901062
0.05590044588344096
0.059646764001819376
0.0641406441733966
0.06599784109757915
0.06691084342354515
0.0404848375468091
0.06928225991991124
0.06148034747994508
0.0507974822404765
0.056066413224544975
0.06303851992380771
0.08884406580238652
0.08442896151254169
0.07862339223505348
0.0752193155997387
0.07337037041848397
0.09702985152745759
0.11986794789324177
0.04903635251718353
0.05613909649765941
0.06416167951650403
0.10026234978638777
0.08837947480013368
0.08599434406639778
0.08201092768240725
0.08252220348688667
0.0862014470140625
0.08609794339831062
0.13702395467937906
0.16328333888462265
0.12771177137722933
0.14519817066007576
0.15652906700503358
0.11945043530881616
0.1225523213237773
0.18705791798117302
0.17627686663388922
0.20198077221021768
0.1481127507156592
0.21667155261142965
0.07163416526069137
0.1197260105211968
0.059819230823342784
0.06881982379347003
0.06470401026033888
0.06737204183484331
0.06937180222803463
0.0758527237392232
0.07246173707313538
0.07499479816177494
0.050801860686328325
0.09754810559174301
0.08909625992242504
0.08729162357737462
0.08660633825745777
0.08924935645997192
0.11921888746274023
0.10846963270885568
0.11603221323797464
0.08612929756068799
0.08517454206973753
0.0760230852547469
0.08435389078051635
0.29211672527025934
0.33771445005423906
0.055948051879526985
0.0632538938939596
0.07349826170655954
0.0950365064444956
0.08899776072316537
0.10352849613810915
0.08054193585723372
0.08310020267414418
0.0838345020457374
0.08577413893973052
0.0730358839504704
0.09350812107174689
0.0875414920991693
0.08281347854089117
0.04991626244490346
0.0896949063059699
0.0441602739187692
0.036549372777683484
0.020801270217690297
0.05802508121928787
0.07029262211769911
0.06155106737995453
0.06987652619427272
0.044668699728426464
0.009212469091947319
0.028795298590377213
0.06191396253916582
0.06555350065785888
0.0527658578000467
0.057311588834792926
0.04303798233166961
0.03092926938663639
0.06145275378531442
0.07215914828047526
0.06656067784458257
0.062312239885695876
0.057829594830276464
0.05247160904940108
0.045723462371513486
0.0573299395856087
0.05914347602281995
0.05886306846680969
0.05574246649184353
0.05331322302000527
0.05578841264981769
0.055668435174279544
0.05540200922111687
0.05507992755788573
0.05443522001781483
0.056704984135211446
0.053025415895447986
0.053645255688626346
0.050652599081640375
0.052825347092608804
0.0522225075557644
0.05151504880457743
0.052038246737439044
0.05356608811128179
0.046613101892976024
0.04970511241603039
0.12204525455444845
0.20886219616694024
0.09682335197174699
0.05859425135075732
0.04876067317697561
0.05120017830894655
0.04785647934509165
0.09989431652929051
0.0918585890341632
0.09247790564466374
0.06513256568341402
0.07424270230007902
0.030521349701783478
0.07505231250049609
0.03839692841407118
0.058701952207655526
0.047173936202374034
0.05003527901735272
0.04408329789761992
0.06324760261339817
0.0866052043542366
0.07402581963766994
0.07358480998591783
0.04952418551494359
0.050602901697754686
0.051753347113423415
0.05081719044644205
0.053704678519269695
0.05352617478989533
0.04962911248765108
0.051604228376749245
0.051455202611976024
0.04596728894852758
0.04947234420582191
0.04566552996744871
0.049484081637939444
0.04766421097513835
0.05005796766714692
0.047185614032477445
0.04635383379308259
0.046426696298975674
0.04259176981892021
0.06063892404324464
0.06907611031256644
0.07878200257838316
0.05104140671369222
0.04900551518641116
0.05410050260392405
0.05093095523119726
0.04466832260203782
0.04171832292418675
0.042070974838340325
0.04296049702062337
0.05826909625369094
0.049723906046915414
0.04915789376099913
0.1606209450652464
0.14223161510849888
0.13818154669146826
0.06729629136150317
0.09267926134136821
0.11051334083879887
0.12004998138598656
0.12848361381257206
2.1591873090067795
2.110200424201716
2.1336905495251917
2.070537019962283
1.965556521997845
1.9187544985374816
1.7765614415224953
1.7438649584053447
1.406888751401135
1.1777477895017707
0.9217876130200947
1.7882150377230255
1.848288132878381
1.482109018332196
1.3664502866875239
1.7234190966350358
0.6618314682735944
0.6926722517576499
1.0720123661640866
1.4460339863539278
1.0093149627994584
0.9950526998693844
0.9669510663346662
1.8224655508124614
1.9482056348075254
2.1138784507457373
2.1518953972746817
2.0543874930738473
1.9935406163453513
1.509161824586348
1.436731595172885
1.2398130692845697
1.2016795754551914
1.0759632360693285
1.0565012594644747
0.9694469978198269
2.134904926515184
2.0621312261644618
1.7793963447953083
1.5417145569858128
0.5850024594520512
0.5278681984809427
0.5569324752262994
0.569691038331798
0.5838987011786981
0.6006793795911471
1.9373494000074711
1.6116245422755036
1.2516138367425649
1.1193070874032571
0.9847862346174087
1.3812033539316024
0.9075437742420528
2.1523445799859755
2.1353626053132215
2.0720330311302813
1.9987671807060188
1.9514293259502364
1.9062183002331388
1.8342651764845541
1.747181822362623
1.9856487669561733
1.966999332398932
1.953831399690479
1.6869899498431788
1.4872841288207563
1.7859288626537204
1.7031105181739399
0.9573722425683727
0.8909748145497932
0.7804780062586506
0.7981009891596199
0.7949652574552708
0.7522003949944686
0.8139743066878502
1.8771685632595603
1.5961190014768663
1.9533612673386331
1.9337377648983212
1.1297676684643374
1.0396351797479613
1.1505437860401633
1.1270770321167618
1.3228631302956975
1.3903188829543838
1.9285805413363548
1.9057621324882348
0.9961171158000729
1.0082650702571438
0.997440442030585
0.9607555965317088
0.9782768070320148
1.0213859167291126
1.0389727766726828
1.395000672615227
1.1945116369635016
1.838315064446597
1.9028344161638728
1.0360801060221376
0.8579084110581268
0.47539924878258843
0.4417470471547816
0.5269904609455643
0.5608308581230016
0.6611935750394878
0.6971084637586118
0.4078398608519638
0.3743762389803531
0.35663934251266344
0.26903918240021024
1.9496911794348584
2.056316499309671
1.7816254776426586
0.24902873486997415
0.3087083557854587
0.24490975902558018
0.21730049722790032
0.24043486957048607
1.5638473119854452
1.4478312736799948
2.1072682096474336
2.058376465832762
1.91069528875047
2.1233784672025307
0.19570566383223656
0.2330557489574925
0.18929057299241636
0.2330531308058693
1.2979094947127032
1.0663648760990934
0.3149233147022127
0.536741936650769
0.3000323205774489
1.8041705945146536
1.6940444870156508
0.1650594896780325
0.9443693844809966
1.4073291706465716
1.3361899593972548
1.0432199895139775
1.1105190171489057
0.6198643244798522
0.7211058451689699
0.7182168727586871
0.9583272802027406
0.6027024667653876
0.6069225890997791
0.14216878624719007
0.02384991108634739
0.1863309863453395
0.5469642547491967
0.645424266504682
0.5418079841131579
0.8039085586539495
0.22065403914813844
0.25105429401072
0.7809268548777678
1.1075176270612184
0.20893292395260696
0.1579449727651012
1.4848474275781776
1.5640872692046486
0.11692740114799922
0.015841694303985118
1.7468656659663362
1.883586429812676
1.9773097156592865
2.1317008351374773
2.212517324826723
2.178150222100847
1.942749623314338
1.8321806890064873
1.4879836705849663
1.3699357006592745
1.1302656676742455
1.0089166415500161
0.7462891382914858
0.8477600378011831
0.6936800424147145
0.6873415175412974
0.6736080156966483
0.7651544589890867
0.7897908927423204
0.9626135487361318
1.1317339624845437
1.4343403819098148
1.7894538421954624
1.7715825258568658
1.9281146943169045
1.962368757136136
2.0876668379885657
2.131720515683483
2.1853017012101907
2.1470899676851114
1.9662512880887035
1.8692930320451173
1.5920789474159223
1.4948415798189618
1.282378462092385
1.2225014402648755
1.073515349605915
1.000123230237586
0.914461509497118
0.8057668871252858
0.6795466898101891
0.5945915952420864
0.6838188353032478
0.7534444465036678
0.7970888931195104
0.834640394761092
1.0270974928991794
1.1467167561833418
1.5513744163707266
0.9245373763846453
0.6993995425938839
0.9431737209589853
1.2380104119832898
2.068045746584739
1.6064208717890878
1.6173175480099886
1.6797925467459638
2.178194767917112
2.178649996269018
2.075413408113468
1.9703679701938277
1.8739654392707152
2.103120052178367
0.9036470044214898
0.8529583350590448
0.639958455026675
2.184605798997447
1.9237543955756196
1.75753865649149
2.193290911110753
2.0331954079036536
1.8798798609511376
0.7114312575456306
0.43442929711696693
0.524807388927302
0.3243179993955126
0.42669254856756905
1.453156700282714
2.052811261490158
1.5330033192610204
0.831144368285761
1.867485908659127
1.474035756222965
0.1205036779616695
0.25844997889514976
0.345649477767122
0.42354185527366883
1.1588453277333175
0.9159580412903573
0.7924936280218218
2.2017496467271798
2.0987717388390337
2.024553400470439
1.2790802178267209
1.3337923403695702
1.0694462425927884
0.9387891461094786
0.6957650909705516
0.8073579973963022
0.716978393261746
1.4061441420849594
1.2213615231316568
1.9825843062308464
1.5104450501020243
1.282094457028844
1.404039167809815
0.16173952871146202
0.2922532561252083
0.6255020422748316
0.3657730091310925
0.47666097918880607
0.5668087590512929
0.3652857668637931
0.7624345633695622
0.6121551511931913
1.116136047425569
0.9898443950352165
0.8920916830763878
0.7771649848197631
0.5798385561133589
0.6978941450774476
1.175831413695786
1.0668615544789921
1.1389283328549618
0.8514046681331147
2.1199197671372816
2.079641639964163
2.0739417972894887
1.9238798945853297
1.8137059798834128
1.3687726976115626
2.155945799505674
1.7931075850140648
1.4647505114486112
1.3279394852415611
1.1667963205269865
1.0620108951857659
1.028269711174113
0.7169548521965465
0.2777083942671953
0.3519039939226937
0.6127976738269628
0.4367979171222684
0.5193869633206395
0.4108849257001849
0.2649244926451184
0.8896199498376496
0.971086966425165
0.8032791653545424
0.8221090300759405
0.713040897251305
0.5931177675102225
1.0324678530530231
0.9512114651374736
0.5891614643596081
0.5638620203230602
0.9962748631761665
0.40155874133465513
0.5012388701032705
2.191938661575939
2.0544878774412094
1.9536848260796118
2.014184528062112
1.9687336953874073
1.2233430061682666
1.0464321078153866
0.6963114657582192
1.661051344241353
1.5176031679557915
1.2474674992919934
0.9959800872306798
0.8918919929157366
0.8165090385427767
0.6234593843965479
0.700346571003068
0.5082881150149999
0.41629608916793814
0.35509717651024836
0.4020465885352154
0.5742234684473716
0.4835725840711057
0.43847885988234747
0.549972062415598
0.8678035900558244
0.8024770678636312
0.7515204781262014
0.6619707793827821
0.9296936271937036
0.8671809348848155
0.24497009849921464
0.29558776967848926
1.9445956559634376
0.25701842604851366
0.9165501544046017
0.6849555209202505
0.5354378485933514
1.053434446995214
1.417095017487897
1.135656687379063
1.2520038337490502
1.9154640746854945
0.929095735836332
0.8130583264209634
0.7044841289181075
0.6655948405888557
0.5681725833738865
0.46669714905963566
0.38852299789196615
0.4083267158725225
0.4391624045905116
0.536334234553553
0.47712654102551494
0.660704674541344
0.8087029624740684
0.7640231314603979
0.7113796097363111
0.8483283655391466
0.8039426676910099
0.20371372016397363
0.330269436249139
0.47060888738452955
0.4116157964007661
0.8717976402641087
0.7618785403179299
0.6593044181965232
0.5632800219905618
0.8937384884162572
0.9668380832613804
0.9941875114188076
1.1792491525010524
1.0675791108903772
1.263446786334347
0.7376713354510871
0.6464477079287224
0.5551267766608496
0.4683123839107508
0.3984494753712772
0.44204392863286174
0.45555091254059815
0.505588076003296
0.4701035176091643
0.7155062878298235
0.7665918539096032
0.738305635825201
0.7893399090044203
0.7603274182322193
0.33424698334937064
0.39307818751472157
0.5590388694915623
0.5160011011274147
0.5198583477640351
0.7582142880889212
0.6368149339866327
0.6086531089954008
0.8467172915183433
0.9085550503548783
1.0000077222668688
0.946459393850717
0.5967106591877663
0.5303109874362962
0.451127905154091
0.45662599308516094
0.4779485968200414
0.4614996821144179
0.7339766962627525
0.7390343394341191
0.7484610630123867
0.7312217053092804
0.3964407434205217
0.4198421725246862
0.5786625353864796
0.5642664457254059
0.5656631602363265
0.6894482834822283
0.6215081956774926
0.7645750225317665
0.8355327255676902
0.42890555411903053
0.5029439230612224
0.6100457136396723
0.5023471544392152
0.46695767102102986
0.43918537166451815
0.4544123187199603
0.450677228083837
0.45071451704660914
0.7280051325415166
0.7163734706902943
0.7161218241706734
0.7077530100156475
0.4203953652406805
0.4262836039297874
0.599244183501726
0.5875938115907539
0.5872805583450702
0.6500530841464506
0.705498376450355
0.3429561461984368
0.34947621362848796
0.34215298239069153
0.3070562155397874
0.3304787546410203
0.33444582379144516
0.38551705994415747
0.35460750659003243
0.41171237448489945
0.42384617999017377
0.45081470131847295
0.43825310150010327
0.42859937678335575
0.4221356358001642
0.4370362337408426
0.34912323587458866
0.36931169458109503
0.2779139932777984
0.3257639564365084
0.32045466940576356
0.28409749536458556
0.31684729128641825
0.29289088600861385
0.3242307555765557
0.2991070608329469
0.3238400648063903
0.30429778569720356
0.3135883558948488
0.3340633642242466
0.7065680611878543
0.6903204666704531
0.6841483023099384
0.42162280518709666
0.4225264775004595
0.6283323511412752
0.59335814755101
0.59310471804908
0.6188987205454628
0.3417980046943719
0.344547606205472
0.3406953086905312
0.36091191711635895
0.3779035987794921
0.5894131217307103
0.5944281033169332
0.42412457638369416
0.4138779455453955
0.405654792259943
0.3911054288956011
0.4102054942888415
2.083475001079096
1.7853774852135156
0.3494004012451094
0.38110553949981757
0.37889243320343174
0.34368363664199036
0.3647790748674171
0.33321858331882087
0.3289371869067144
0.3472887200454855
0.23595416445080794
0.27446883233484115
0.26585616028632647
0.31015981198996867
0.27993530891595025
0.2946239640909095
0.6748126769529326
0.6561360866667866
0.6482770391392678
0.4127132244892704
0.4056310078921187
0.5779794481760371
0.5505574950199845
0.33779037708960286
0.33085056517544975
0.3294530087040381
0.5844016911346067
0.623120988107056
0.5648289770058528
0.40063897538009086
0.3923443666071457
0.37886319690381765
0.35828409547718537
0.3804133467101243
2.1247294086385717
1.8889452862876595
1.6678281753049484
1.8124201950764052
0.2026718734478202
0.18021804162807892
1.3707947664899727
0.32055190995819344
0.30819460721204334
0.19482171026555983
0.2959488880835282
0.24116589428686283
0.2693220904640188
0.6349512419541461
0.6181493707177402
0.6065701768023646
0.42304050767235585
0.5652958412710208
0.30375531855224047
0.5763736605873252
0.5891755480043485
0.5059939801903396
0.545250597559064
0.3862649327988352
0.3601144165094549
0.5828267360330963
0.32528808520587316
0.35016109654778904
0.5415867570705686
0.30968820775857636
0.28702811832321623
0.26145235681016366
0.2410074753807785
0.20503063894380413
0.19516306672333514
0.18380698524105912
0.22946923796573124
0.21816887172194555
1.7098677720060003
1.4422549094676842
1.5069378916891054
0.15334157327284606
0.13257708335097657
0.15256096559967794
0.17869752676960163
0.28876228844874713
0.272636599519882
0.18231363346505416
0.25342624858109647
0.22638261309417607
0.6162314327788784
0.38231045672389213
0.5684359506465847
0.6136078155080392
0.5273012913911123
0.5321705388280726
0.36961419087388453
0.35796864501661246
0.3213369416103158
0.53042279431402
0.4513495749615879
0.1277505947001656
0.16896281310676747
0.3062447640440912
0.2516620845007335
0.20971837127488283
0.24618064906528248
0.22679151619084423
1.4537195706523482
1.2725067348501122
1.300874973857561
1.1008622013897844
1.118650692536453
1.0663217295765686
0.10794042604427052
0.053217576832216985
0.516816608238818
0.3826260295846265
0.5471030354553965
0.6142042155137379
0.4795195924366266
0.3346597483701065
0.30218909479231904
0.47536877126085814
0.43183135694629243
0.21497935267433116
0.24524506449645586
0.2616014930625811
0.29174987435449345
0.25209469237652493
1.17117013261169
1.1420437521850284
1.0755552853371586
1.045626515434345
1.0327139434798172
1.0061333360908689
0.994909731569046
0.6575671678597864
0.42200163027818505
0.7230211342546463
0.721595675019112
0.6879985825085636
0.7283287965426928
0.8020289065361026
0.49906137609614376
0.3647280883918714
0.32138329125406573
0.5476391066676599
0.633524632751394
0.473935721175957
0.27090006330022715
0.30055758174727343
0.41839554790489636
0.33492741805089526
0.2408894174552877
0.3271989823445802
0.2682573683376397
0.2427605569536065
0.3058784383976952
0.48352702896737493
0.27194202657498195
0.9485714061562838
0.5100107420757537
0.32776864872721445
1.0386838921906782
0.8321614350399126
1.0706383115677114
1.0475621336809595
1.0264933269818788
1.0123213794212254
0.9790217694725657
0.9083670600132442
0.9467920503317298
0.9057193373399041
0.9544641689276266
0.6569080948731514
0.7578758425107722
0.8058146319311272
1.163597582257268
1.4264611074019415
0.665635623247233
0.5709105922756986
0.6214283619503164
0.6427335970440609
0.6911285984461111
0.44301194595149623
0.3603373681809475
0.30970748437227263
0.47957090767234795
0.24540454233362696
0.29293553042859266
0.35049210448441764
0.25568365615590044
0.2828263837457181
0.29353155067257497
0.22016003103088874
0.2102614449982733
0.08828447669026411
0.46119338047767383
0.2722459940612931
0.9514960426367015
0.9969858870026165
0.8928279895293323
0.8596918891309201
0.8822988651973481
0.9629234666730487
0.9091091152726241
0.6495621302870961
0.7957870914268357
0.7366376313365561
1.6214012248519802
0.5110157007612983
0.56267045456441
0.6434478620084879
0.6466199389614041
0.42855692715585
0.37096701039134855
0.24062716253685848
0.29820622137875197
0.33159152413212556
0.28203219273645214
0.34767130632264426
0.17344926768808266
0.20100282846534645
0.25622833343833873
0.20240349012363454
0.2703716607773491
0.46607607703113674
0.8088580171595634
0.8361860875538387
0.8459883022480763
0.8691963792881082
0.6621290126069975
0.7642082512141462
1.8607402034542657
0.43871303193966044
0.39386534589699074
0.26153549021758354
0.331194740357248
0.3523697571259567
0.1742129649742725
0.20603274038093933
0.23495365160654846
0.2239261687832106
0.30242391329412616
0.7614425439125619
0.804267833556696
0.8403209472102627
0.9484496948935789
0.9731814679701274
1.4268492547018106
1.207564105273552
1.0328566638282368
2.0525017315409246
2.1312915054690897
2.232148944859144
2.013284918678535
2.2465506112949245
1.8858179340453614
1.4804399582959362
1.8194533415393113
0.46420138157615015
0.4395946785904135
0.38379113087057415
0.3125404323014656
0.395401752066387
0.17144022782818744
0.12889580606074727
0.22021759065140692
0.25658225913039007
0.28636575668893527
0.8149804473785847
0.8467750753040216
0.7257956902406802
0.7529289028247413
0.8937636777845587
0.9704376920587883
1.0813917646111637
1.2946525185965136
1.5343135385155537
0.437658069336341
0.5054202851828665
0.4945618002220304
0.5186736143708077
0.5277162423943446
0.5944868686964726
0.5157495850307595
0.3884591851639953
0.4896950961866276
0.39271215481451005
0.21388400926653733
0.19546591258200618
0.24110215677072758
0.2604225620723882
0.7493996827466937
0.6892262156495361
0.6658133053766916
0.6939138003039874
0.5812631371513203
0.6035319747520537
0.5518993790740917
0.81168253961095
0.9619953357060619
1.176522695469107
0.4748310453047282
0.4902036879119507
0.6011725913007305
0.5601396390579588
0.5144747898038969
0.24104383352172926
0.265074543014139
0.31265896300237433
0.6325995610226574
0.6420468417607418
0.6280538269907144
0.6173784743116006
0.6449222103004394
0.6495190996371579
0.5984441042119898
0.574778891535677
0.7359593586117724
0.5223946297549159
0.3104014074652261
0.257224681342264
0.4360448979789176
0.9261266444978241
0.6451942689635759
0.6263474441659799
0.7654379096566613
0.5534823744112128
0.2875783480431893
0.3213237824719678
0.333103798459246
0.4440754458978821
0.5538187588268395
0.6166984770275237
0.6069196322912904
0.6024905247112663
0.09885276481634335
0.27383165319675556
0.23987953264390957
0.40803384475829735
0.45322085102532467
0.6319947545880468
0.5639734869715299
0.7742657401721852
0.7915473780568667
0.7261302866445707
0.6825418848387681
0.3430457057916981
0.35484733878845365
0.3254130671051492
0.43630643488435594
0.5496283781399082
0.600507213320513
0.5426067906574851
0.6276088706270563
0.5970047688199758
0.5917563593135782
0.8069401458642252
0.8213917179626219
0.8294153321558383
0.7993550543233746
0.7611605020098953
0.3695354513777096
0.37951144279273885
0.35808055672706196
0.8478457222855078
0.8280536154827363
1.2551887895101088