<?xml version="1.0" encoding="UTF-8"?>
<VTKFile type="UnstructuredGrid" version="0.1" byte_order="LittleEndian">
<UnstructuredGrid>
<Piece NumberOfPoints="5313" NumberOfCells="8293">
<PointData>
<DataArray type="Float64" Name="Magnetic_flux_density_norm_@_t" Format="ascii">
2.028611901672931E-4
1.9811307341886423E-4
1.2351789206566235E-4
2.0566406724046392E-4
1.2678150726139553E-4
1.4407249023224206E-4
2.0515954780519626E-4
1.3233837750429488E-4
1.9812513041072823E-4
0.050171694253998735
0.05473470657034892
0.03234831699021971
0.06658896500452943
0.09447604934176757
0.056293001239706715
0.028380868464388507
0.03305306147118275
0.019157907545328787
0.10155208519648733
0.1591151360752173
0.12318687639738612
0.23639123782467772
0.23422734400068362
0.2601164283558345
0.21960917635139704
0.21598066699482962
0.04839104606184558
0.07068137114622403
0.024940034884094683
0.0030967915203834835
0.0601175979607706
0.09129806721507179
0.12035904000056415
0.1718813755300842
0.1949242831588649
0.17128319243752546
0.18509804853740874
0.19263397842466756
0.18550906914651843
0.18947069271760864
0.18618076110506093
0.18966085180280853
0.2570736874390154
0.2944915607301369
0.18760109645733758
0.19359928286446748
0.1936376014652663
0.20182434378979833
0.20206707961753922
0.2983720651162258
0.3995818645097419
0.13124880530938257
9.881975891986952E-5
6.10802669566784E-5
2.6651899143300436E-5
8.787842353672018E-5
7.831352860997818E-7
2.817788486132712E-5
9.961792057002032E-5
0.1942563158134704
0.3122525084186434
0.26746724866107147
0.1829160256814327
0.040707440862531495
0.027261692013286477
0.15726810133004773
0.16361120975871332
0.17178012984075555
0.15667667401739402
0.1509579314122588
0.041367973610686046
0.11398041060058517
0.1004983277050865
0.07293479356968742
0.05662673805816666
0.03242439039163444
0.139531955213432
0.12792430344363245
0.1215748991652036
0.12693325636244826
0.051158219049622
0.08542476350591956
0.06730869499593455
0.11424123094342273
0.05331444746085279
0.12492102011384998
0.11239722805244197
0.1021573677902551
0.06676561029581257
0.08093454781636546
0.10260246724190518
0.06965835266145465
0.11030415021827693
0.10231523539392144
0.09012344846326252
0.07937958790062065
0.09457859801480618
0.08114731145224041
0.10012493493799081
0.09534728509004196
0.08761717083123068
0.09202484418737286
0.0870254918239894
0.09399508312215477
0.09154412171643946
0.08931013537592254
0.08836096687022245
0.09040012939992288
0.08950238042558571
0.08798099887837985
0.08710805867555689
0.08796882182325619
0.0860847394381667
0.0846700932551649
0.08570389567631431
0.08358052893351238
0.08149570946242744
0.08314745324411513
0.08071096341312624
0.0777280682494023
0.07853266579470043
0.08007568717822407
0.07649500684768677
0.07377869879209913
0.0691895011319199
0.07275854769837371
0.0704659145042039
0.05914993670169981
0.05141415686259156
0.04629706473726264
0.05683325547110357
0.045022166164962636
0.04057130504506607
0.03761212402050847
0.02975991686472478
0.027536413820622357
0.03130223455631863
0.026733093701143372
0.02102496705787967
0.05172940722034391
0.020098686079313206
0.016831276635404444
0.015246156467134007
0.044048474799934546
0.03663750631436078
0.024206158611886564
0.031539230393058997
0.02552246618899562
0.02065983820396741
0.01665200347039887
0.04073029578848374
0.03205978532488774
0.03123507833127772
0.027235619268943283
0.02378272993765797
0.020828418915629813
0.03981161113117769
0.03339630605461656
0.030790465426838304
0.027909216359385564
0.027148352681440155
0.04048490501837045
0.03462140075034439
0.03059027375268165
0.02930654718026954
0.04350940305365413
0.036946801426310176
0.04006800354266018
0.04459200148481507
0.0510980291197452
0.05086196546571057
0.05626828468929627
0.04574425793315273
0.05860230876772989
0.07030082020694585
0.07099939778140724
0.07245184076432686
0.06878095326010063
0.07381484871007876
0.07692614968085665
0.08038871118577688
0.08104679153264299
0.08269548013428718
0.08458351600819786
0.0783510732158723
0.082689005237394
0.08537428727304718
0.08749082730028646
0.09057222407780588
0.091169816833375
0.08974798130306165
0.08637310450934353
0.0886519745271147
0.09093162157999447
0.09192007211938875
0.09124050309292342
0.08940625156954503
0.09219395148825005
0.09164159639474624
0.09342039793461476
0.093529413731133
0.0892237128068567
0.08904311968268779
0.09570629607903552
0.09360116908921368
0.09688421136167638
0.08422305094270253
0.09135299710395021
0.08324426521616152
0.10112703678376134
0.09778844577748048
0.10362816521299323
0.09626045987222294
0.0754707530665571
0.08597767971097435
0.07441032183415834
0.1084300536755241
0.11181521528887924
0.10726899262691049
0.12000734187086921
0.09195668773120431
0.104197176004403
0.06120335362650645
0.07706718869977193
0.06380911024860485
0.11435547840205383
0.11986002440162792
0.14144795186972167
0.08411408592950435
0.12270161761281916
0.1046211649064861
0.04261159362338798
0.0644893396045481
0.09775674546805008
0.13036047863934944
0.07376842552606347
0.15686930359647633
0.17801222944950426
0.16258354917768017
0.09702051952362062
0.1302039259758538
0.04799414808363527
0.11722821917846131
0.07835873008607441
0.26455993204034994
0.25889876097401915
0.17835167269322624
0.12471769836815759
0.1329534481327824
0.1662350896849065
0.2096035846430252
0.05438227290104051
0.03636305757124864
0.04801554321232822
0.12250638683613412
0.12061778147465203
0.07963958277328013
0.09163968596711745
0.09945421649461672
0.11802856244521512
0.13470886808179433
0.1170736344077315
0.03215565031166925
0.06395347970061863
0.05313186075605929
0.10071755851367356
0.0820710374263466
0.1047348888317851
0.10505810602988803
0.10396770800906223
0.05710172172916434
0.09502743991394882
0.06949341883348258
0.08573849598360805
0.09637024452035865
0.10179768228848184
0.09639017859795897
0.07253414139438916
0.08927752140548191
0.08124285043588003
0.09139758555956129
0.09497384417651922
0.0916157933093928
0.08210503404491702
0.08668260025892265
0.08918898823405688
0.09040978747088368
0.0885657043142411
0.08601703076355943
0.08721132072531107
0.08649376469882826
0.08731708248867225
0.08598460128109292
0.08469872175773283
0.08476708979021028
0.08388661709832175
0.08280529373509167
0.08203446341896359
0.08059193824574654
0.08068131765633406
0.07854857496395924
0.07870965641844299
0.07682101634247471
0.07649277255585776
0.07746617674852292
0.07247045169273147
0.06363997063968577
0.06563773481798904
0.06373377371705312
0.061720006476719685
0.06386010222764218
0.054973304755291566
0.050384022784921295
0.050622120727036
0.054939730870695244
0.04702171643835962
0.040941040983659506
0.04260010350850053
0.05072166097449752
0.03475054989294165
0.04165495838344741
0.04927247962369041
0.03255650404085878
0.04159689541807288
0.05032332340172635
0.03452152887517094
0.042292198611989684
0.04654631929898449
0.054103997328764884
0.04044542447623053
0.04965173248197123
0.05405291717307883
0.06239140702261875
0.06241129104101232
0.06359406393107485
0.04943702189802245
0.060342944704655635
0.06841653392835366
0.0751951749750998
0.07442087321917838
0.07604265685113987
0.06175641572794111
0.07592162930874595
0.07784725557836089
0.07915945126045297
0.07023621381151983
0.05717560391286311
0.07182671786657523
0.06148430065918828
0.07405745813092732
0.07793061593224507
0.07995442514785805
0.08147063246410707
0.07812300606432204
0.07918213358023111
0.08221184830048765
0.0824518474061342
0.08043217257929021
0.07281247083426486
0.08761290521725473
0.06470299472312871
0.05328858407632136
0.05448012587822689
0.08335774099933478
0.08282610249280092
0.08282404220664415
0.08209423743775397
0.0810276603292065
0.08443162093163477
0.08480178069374104
0.0905911401879327
0.10473867545308801
0.07728574297253028
0.09668055718609088
0.060175961740358004
0.03141100875213693
0.08458792827614015
0.08393765076950399
0.08919048183674064
0.09970522872702685
0.114841106120196
0.1313964093205725
0.11892971411859118
0.08488246165979148
0.11997738255827779
0.05474650862238006
0.08814446593406415
0.10859010231254923
0.09605464732410558
0.15841332186889573
0.1451407083081686
0.12720068587506803
0.12121982507381017
0.15803418584781795
0.18866176050635688
0.10378343792448401
0.17943936626654655
0.16858545354961532
0.1406632980105196
0.09706709195037355
0.27082733013953403
0.3274805450526553
0.1496171181441466
0.0203523680081969
0.013395701473160179
0.1522227017571264
0.25483404580772767
0.20999843682641425
0.14417705243967255
0.15188273193996013
0.01771714386112589
0.010218070060326531
0.1191679874412576
0.12148054348131176
0.07681946393267096
0.06293745778132331
0.047514088705729374
0.02717990633183676
0.03658463970015709
0.11840767544603066
0.11805936093159775
0.1082065479305544
0.025846742406264066
0.086190182528583
0.05595866639854943
0.03955174443636925
0.09442062628744968
0.09632739824778608
0.09340736487606242
0.04305350363152291
0.07338261026269281
0.056846298779896005
0.08208257499964831
0.08447861277698704
0.08286780683747741
0.05965596310734819
0.07074025583496217
0.07803442134575528
0.07774319103708688
0.07694768890333704
0.0701481035977598
0.07395746545280438
0.07419765274521244
0.07347197240191826
0.07268441618497974
0.07266071069205234
0.07158200838622139
0.07114900507165861
0.07045230166353467
0.0686573636557139
0.07201563686449686
0.06233098903121087
0.06487185995529049
0.06404805683646535
0.0627701427847394
0.061805682651902706
0.06475052089527118
0.05919832274358864
0.05752830561455042
0.05400099235669566
0.05517655574410421
0.05868607715129181
0.04770970715608599
0.0508572169361545
0.0546042647492423
0.06036158115012915
0.060931843524312225
0.04107587402760413
0.06294243246241672
0.05989565648636521
0.04322736432287282
0.04765655200255225
0.05349834568686401
0.07596745382718466
0.07247086686249674
0.06848014072157266
0.0658568625151225
0.06395650411356807
0.08195124208998579
0.09504479468017507
0.04161850385499232
0.047564895777225336
0.05427395493690621
0.08206688838472724
0.07456651089190565
0.07261833380240898
0.06982820638192673
0.0700678332920467
0.07218115258097624
0.0720363146228886
0.09291366994133768
0.11381138105120325
0.09101128737113318
0.10587719454398418
0.1156957917738467
0.09254676480422598
0.0914876719634297
0.13214806352085667
0.11817512497086187
0.13643074808186245
0.11345489532083354
0.14884385187645038
0.049822377210311165
0.07282624962899543
0.05051203249462408
0.05799797956035829
0.05447590515702705
0.0566480259123974
0.05824645433279922
0.06362913954381977
0.06070219039611966
0.06270126860695763
0.04299722990111223
0.07954830566484584
0.07412575142810497
0.07252144043886956
0.07201371140475886
0.07388757778385105
0.08623000462365375
0.08506173722305384
0.08808101267867063
0.07145726365241736
0.0707511502253463
0.06348959674836395
0.07031593962837514
0.21188973418086862
0.2235993901463819
0.0471977541743532
0.05311909101890572
0.0614978329854639
0.07737212553496635
0.07343341615149404
0.08210449012727765
0.06705261943762088
0.06911418909778143
0.06963092865603746
0.07107008685823508
0.060899382942417056
0.07626384042662437
0.07230692977635096
0.0687718357567225
0.035616151464933715
0.06062838423571832
0.033907587075241635
0.026962788784506204
0.015831410218642022
0.04027356864061457
0.04515052103935597
0.04286835762438821
0.04442550259724326
0.03257984443625084
0.007138575012997585
0.02166749790159993
0.046808096504875434
0.04902497789717051
0.03877694934587198
0.04350338591527423
0.03238976730640953
0.023481817931031174
0.0552235126581767
0.09662845135886844
0.0714311908222473
0.06233404504486795
0.048120320366150576
0.04147050776710391
0.03526191243458097
0.05783858354875523
0.05819324958466126
0.05447915892894158
0.04847912344534888
0.04402524350113046
0.05386843599585286
0.05388924648909713
0.05186043379788013
0.04940367910043977
0.052306968159259205
0.054537655329006694
0.050606979207667664
0.05159263517823037
0.04768285812730522
0.05085367107001445
0.04994475870034646
0.0494808781971127
0.05010178195603292
0.051685539826171044
0.04485145243346552
0.047914009271802234
0.10629700108860454
0.16899209788872813
0.08288551217359377
0.047832816544826025
0.047148075071115826
0.04963017791162744
0.04618629152881465
0.08745053325084037
0.08941476726699331
0.0865701297865476
0.06534608130096833
0.07214434034474525
0.024665470457198045
0.06434833120011191
0.04022747778467838
0.05850775798541287
0.04580208577877004
0.04870466352125069
0.04266940661094029
0.061933934740937426
0.07807131704061966
0.07031094783034879
0.06362346219002286
0.04890345619187722
0.050025037620266895
0.05107448966109493
0.05026040569408222
0.05317923486607937
0.053379663177179126
0.049649880795130774
0.05124518550002738
0.051126528871680406
0.04481293365473784
0.04833595967930274
0.044689780892262686
0.048514938402996054
0.046962445050732445
0.049241587886478866
0.04656414024965663
0.045524436410370406
0.04576606459114494
0.041421638318327104
0.059227995693285344
0.06598129127411127
0.07213889526960592
0.050538935483153864
0.0484403124776765
0.05339968570030534
0.0503968515300658
0.044106960580136134
0.04073885709208087
0.041239272396530496
0.04226708142906729
0.05704645732415096
0.049169468242773615
0.048561697098232215
0.242291338813176
0.2146712138676413
0.20877753436923405
0.17312374828493968
0.17989921087789
0.18033947749329388
0.18448468236065388
0.1945211797521701
2.1809371480827253
2.1409881669279387
2.1505315825977545
2.0872219397961502
1.9809159763023727
1.932855022198254
1.7864272943237427
1.7503890154920885
1.4005839558441358
1.1677650309826981
0.9232397844798612
1.8457951946225801
1.8955821726219546
1.480593927407937
1.3597766318019877
1.7291471018741447
0.6617575167862961
0.6983630977396634
1.273573890406886
1.675625360182764
1.0928810334876327
1.0138492691105487
1.0125360419770273
1.921302736394458
1.9952455988251392
2.0783358195116426
2.1180464952031426
2.0254839300754703
2.00017076462956
1.5615880392534758
1.4889700793795662
1.2812317871471424
1.2468074237706948
1.0946840209314126
1.0851134773150701
1.0042605743966546
2.1048581787960114
2.034807370983165
1.767593064384275
1.5474607778521803
0.5925132128856659
0.532944464081748
0.5622205346239438
0.5750948369887783
0.5864188988906998
0.6023049810895329
2.0022172416993818
1.777567681894346
1.2664358345614655
1.1446607038116252
0.865027504915993
1.2010500815554934
0.8663838540364908
2.140721012285742
2.135216712621844
2.0459342575924175
1.952167144313517
1.88287600476529
1.8104777910188528
1.6936931933479913
1.593685432229054
1.9191046075627904
1.9017814458023945
1.8879396526632108
1.6542324079498456
1.4879805086738032
1.8052992823290508
1.7289844304631174
0.9854225385069123
0.8958525153761742
0.7374362715356165
0.7699550832215646
0.7866300485125254
0.7454809206632828
0.8264455636678255
1.7443358776057412
1.434128997686363
1.8975607039185742
1.8985333108589166
1.15452529465026
1.042755268420368
1.1673833033943897
1.148899521884598
1.3529738199795356
1.416606351135549
1.9026755672225542
1.9247953590947642
0.9478602270995098
0.9846057983529768
0.9949088122321142
0.9197408716003147
0.9651640901809927
1.0276418541577534
1.0386934166484563
1.5573921096410686
1.3778858422430016
1.9618036569226522
1.9972943849261393
1.2207724185403903
1.062444943959384
0.6824429657076526
0.6412104256078393
0.7174025157582552
0.7622415745044655
0.8479170575382863
0.898635810689006
0.6235851611979802
0.58275643910812
0.5882364262848828
0.49586581531045765
1.9761911856745724
2.0604642927969747
1.8554465885571914
0.3275931874076728
0.43358674508829625
0.3074886337665043
0.2544442148532879
0.26721553748928
1.7021882517796634
1.6231869084386965
2.072534931555722
2.0101998945914086
1.9430504704150595
2.114105159232539
0.21731279455823804
0.2449027274843633
0.22155125871388437
0.3047247222872838
1.5156555517105186
1.3542921944043609
0.4819600086769992
0.7614540931432212
0.4606053707003966
1.7225487336785001
1.5830137084140725
0.23694781023706474
1.2524296066705005
1.2963223485901574
1.2133767952466654
0.841663676435251
1.0202798553100154
0.5922239785013331
0.6411561333054702
0.6089737590387242
0.7431568947097206
0.6177627343694169
0.5543024241818227
0.14337043414288372
0.026117240667675318
0.18757509163446506
0.5689783328794393
0.7296959554401522
0.7058680565526217
0.956574935702557
0.22105225601237957
0.25065329374093026
1.1136785375226737
1.4847812845116455
0.20791913326094114
0.15617020243757387
1.756749971608567
1.80136996946798
0.11606183238329071
0.017935291387557322
1.8784849898802058
1.9450379397004116
1.987584380429361
2.0894516656112647
2.1261156530052694
2.0859020860288964
1.8358657201438005
1.7197648917767
1.431810064850979
1.3383469051012498
1.135699581768195
1.060464172588775
0.7648257233537287
0.9575316340984297
0.6811807202953276
0.7255644088024554
0.6441732866437304
0.7004061839663422
0.6526034278548999
0.8401373645042635
0.844630115933953
1.1080965695180354
1.5558624574433637
1.525545337904597
1.799163322257769
1.8540100752606448
2.0497825859769034
2.105484094008411
2.2032498902526734
2.170826110260269
2.039779352835188
1.9646728038577776
1.7175813400385511
1.6445423851341727
1.424936919657708
1.3776384791829617
1.2234762473125185
1.199207047851081
1.0941415465221787
1.0783410615590505
0.6706156984665123
0.597799028400773
0.672764674383767
0.9854063565021223
1.0108237052746991
0.8020835065730924
0.9516378558947259
1.0878857641448731
1.4256800546498474
1.0537499417300495
0.9691126627725469
1.1808993028713435
1.5851248716115602
1.971582620177285
1.5004691181831233
1.8881815359293637
1.93140288544436
2.129759916468692
2.172419464869106
2.124040628928882
2.0740132114372964
2.0219475731086196
2.1332219966800037
0.8935305050553275
0.8460488360927793
0.6310533302474429
2.2199519583365452
1.9628144898422992
1.8073219152721116
2.215394249454891
2.05134858768738
1.8948294342586463
0.677832306886046
0.421701551281946
0.5233956521039645
0.3256084935772776
0.4309001920862016
1.661141629211101
2.028234281660216
1.5789748720054504
0.8664423141972699
1.907044869339794
1.5145548030618992
0.0984928547738487
0.2744042395906739
0.3546137774370041
0.43149207758188507
1.3782949059761782
1.0720936445073432
0.9131428655064161
2.167034742752748
2.0642174085740894
2.0136693312014073
1.3128848883816677
1.3660044864080154
1.0758712094019145
0.94121457593449
0.7339842221741063
0.7658461474841451
0.6918727524912398
1.446734806665224
1.2424851108815433
1.9632033482435725
1.5057141519258448
1.2908793236076839
1.228552737205387
0.18921493313166296
0.3114995256426611
0.6228228515586445
0.3786820865421494
0.4841273098034904
0.5690488940585219
0.3803214629514596
1.1734968270637331
0.7710738328061834
1.1238930926817494
0.9518831452629908
0.8360954272360777
0.6865439359856339
0.5454184170916391
0.6085885836753967
1.1917928528372492
1.0558384933132727
0.9602476208319697
0.6994263873165704
2.116821218708
2.0865503133240013
2.0509430599758973
1.8668134126207505
1.7729932861987057
1.368828836948373
2.1613427753193695
1.809159656305269
1.46025438493632
1.3321761832699024
1.18245992818822
1.0854282825268478
1.0517149073599268
0.6543782807550226
0.3001931314615327
0.3687571472810307
0.6099694239441552
0.4469795089799306
0.5238967918346037
0.4231297375281265
0.2659844213349402
0.8088870458114786
0.922146984770465
0.6957784767314141
0.7085477869902091
0.5757246789203975
0.42725356971385603
1.0062515137478483
0.8842402765765862
0.4876533984758941
0.5342600682273672
0.7546717297312625
0.40492078238390855
0.5143255427370509
2.1816519127391287
2.0257849909813888
1.8858275574426948
1.949060915363029
1.905091941281747
1.2662515925552968
1.068519389156347
0.7102165219439849
1.6770344339480439
1.5383099169515322
1.258246339129238
1.0230147236535438
0.9315586508675099
0.8503195988840518
0.624515504486743
0.7246393594766051
0.5464527943032265
0.470447231111522
0.3724068285680342
0.4149963004973789
0.573820659186421
0.4900394737999759
0.44816776479919485
0.257298790597962
0.7670768593258498
0.6735341783733427
0.6033981655529181
0.46279415014598985
0.8494179572076955
0.7623890556451522
0.13518637995725324
0.38871263887269114
1.8980120789471737
0.40587117639164727
0.8606650716975691
0.6329380495400314
0.4639767567553191
1.0493389213766433
1.4338180675032597
1.141482748422028
1.2647098062285782
1.9142335033962912
0.9733841772561612
0.8655458498716713
0.7622983511275662
0.7143781804336969
0.618765319973235
0.5302036253165856
0.4775922982886862
0.4205833386728847
0.4481122643675178
0.5376642625089617
0.48253788995047353
0.4321067939742025
0.680681421141823
0.6145433037810817
0.5280309857889196
0.7340289518799198
0.6758149411685093
0.36070753237446823
0.4486991944026817
0.327710884879616
0.20371013923000003
0.81176007146613
0.6949778048228832
0.5708944282577008
0.44875148312327484
0.8408860653327387
0.9425031941142312
0.9675905917018643
1.1836421171546525
1.055370523963124
1.427340948061495
0.803231419421225
0.7191866856522183
0.6318232731723912
0.5500684978271727
0.5005899854049275
0.4499651968069316
0.461922698483774
0.5073878889053997
0.4741219546949944
0.5267464618458387
0.6231756512200733
0.5757015257860757
0.6580177558946456
0.6232545327644305
0.4624674600823993
0.5042788276616191
0.4161623504193344
0.3499826969384026
0.3447234897842806
0.6720312169538879
0.5210490232942352
0.47442559941618756
0.7725820665288606
0.8444395768859027
0.9619359653677501
1.143357892303318
0.6799581499841594
0.6189093105474085
0.5491869395501975
0.46143024008281164
0.47969777825696036
0.46468089522057754
0.5717670823726769
0.5937244143860129
0.6137756207064452
0.5970989270254562
0.511670536742959
0.5272046572635146
0.43057266153143375
0.4087704621854196
0.4099058019583082
0.5731624704030018
0.4854162534202465
0.6614348059300273
0.7484020807729275
0.6469759697599711
0.7174388085922272
0.8259167499506983
0.5981601599370555
0.5660637872707474
0.5424161537991332
0.4572577554526093
0.45221523869751273
0.45286853984234804
0.5839540349319292
0.5836753072641584
0.587363615631249
0.5808152944844348
0.5290343380190562
0.5317872141411846
0.45697094727882376
0.4407559466385331
0.4411854516376163
0.5208910819915867
0.5870177395617168
0.6389362551223077
0.6733671351677027
0.682641565253629
0.6296312365408991
0.5935983667716584
0.6194722622767869
0.6129557871836092
0.5951526765584558
0.6331641606273387
0.6349397666655908
0.5530296330736361
0.5413341659354868
0.43017013423237266
0.42345088821828664
0.43890996139945176
0.6261781807805039
0.6716239965561766
0.3622012662046964
0.43486936681459804
0.4253372476928547
0.36915202338810404
0.42458171439117404
0.38446942335148965
0.4374658829040225
0.39735877730694646
0.44242172516806727
0.4094607603205613
0.42755375102091986
0.4604419133772512
0.5768965473967741
0.5693398071085585
0.5666974303088723
0.5271516017030823
0.5267671417100611
0.4768524993640757
0.4503363855505716
0.4566013795208591
0.48782003831603765
0.603710341234919
0.5943492228024897
0.5846078707476403
0.5906424301299786
0.5988713494198449
0.4483353132677264
0.45200029788187507
0.5277366337615808
0.5174206467704096
0.40693787373970797
0.3922243210527574
0.4116179851364126
2.0808385257884474
1.8572341036511606
0.5833485910217755
0.6190893702789062
0.5649572307128524
0.5331088665408946
0.522691068038307
0.49038541959715215
0.46756440003039057
0.4880283250203419
0.2898736512099544
0.35660467796855333
0.3402814576790907
0.4286549320785188
0.3695279804021001
0.39768692452691284
0.5594883455830578
0.5492574204726229
0.5452260252241071
0.5172819911742703
0.508513390579228
0.44097370006909054
0.4235746641583325
0.5669650327714818
0.5477293728044584
0.5400683693595743
0.4440440510987738
0.47285787865034873
0.4294504413956059
0.5023511868507411
0.4922689122961376
0.3799163187020951
0.3591785182544132
0.3815236248610011
2.072364258102032
1.8165197026143396
1.7716799698598773
1.7276318997600386
0.23356588692230884
0.19780683389649492
1.5636228766984541
0.5092869974595752
0.4613812115766311
0.22236346684915198
0.4200036673696278
0.30310527787396196
0.36072842659153254
0.5358956460469994
0.5264681642919589
0.5200323032812532
0.5313394101756455
0.43085158516271854
0.49446109331989646
0.43762558748103025
0.446949171674615
0.38468806591300503
0.4140331628664839
0.48452811309573934
0.4507323087154427
0.5049882931331322
0.3258211540868987
0.35079259285474823
0.4741868159178379
0.30974713881062843
0.2873144714507596
0.26146066364593945
0.24113262620975898
0.20505035155171736
0.1952364620533705
0.18402766430001613
0.22935889147981176
0.21802031910727424
1.6216228062921398
1.3436130341184718
1.3914972374794874
0.15582891680728272
0.1392153627377583
0.15399031435669877
0.3214457558582541
0.4452181260740515
0.39673057365643666
0.20870699250027344
0.34897438245165396
0.2919304876751386
0.5328406945907884
0.48004722633927055
0.43092691612417594
0.46464145392211775
0.40001673819391326
0.40341333569842847
0.46528963094276676
0.45128024102089737
0.32125433935273057
0.46694944241959396
0.40502811015306744
0.12790823056940895
0.16950290522497463
0.30606429028273974
0.25136216626952207
0.20971092947182715
0.24557581754526212
0.2263025771121878
1.3485114173767467
1.1592683204533074
1.195668079994847
0.9862893334521469
1.0056369428070402
0.9339144588725663
0.08732070996811392
0.07879785304808067
0.45708983287544314
0.4829772471729399
0.4141909805633866
0.4642265800446293
0.3634732981763474
0.42161711909778365
0.3796635632339281
0.42766398294727076
0.39467437661723753
0.2151767947530106
0.24522751114927482
0.2613536700160391
0.2913250056070757
0.25153373518580163
1.0897194803277117
1.047573942296981
0.9148611228367528
0.8691463951395912
0.8682802066825226
0.84132598972162
0.8173729645920534
0.5283308676838608
0.47100435051107414
0.5418136293446033
0.541706354209127
0.5159684497879939
0.545164403422614
0.5997606180896975
0.45122851301805994
0.4602496834604093
0.4042111748884077
0.4137341460648169
0.4779352920183478
0.3585069536790407
0.3402843664728602
0.37703727626455236
0.3841063594506378
0.311293198672224
0.24044454617969013
0.32675103441310066
0.26781860368266147
0.24213679073382127
0.5012722864265007
0.7991991017444904
0.6606345504607485
1.3838361804217703
0.4221915687081484
0.2926642344843029
0.8246937144444101
0.6192452991823836
0.921462421571813
0.8295280394674142
0.7932575667026621
0.7943934939284221
0.7645088856560361
0.6912424909393434
0.7376380021060768
0.6868284157846386
0.748515137161506
0.4566925989525874
0.5664778100518387
0.6019871559923707
1.5111483333906488
1.7258594839796053
0.5011006087994737
0.43040764768390777
0.46718793073281606
0.4822216130978985
0.5173135639193136
0.4105453334757813
0.45310663349064584
0.3876171832496967
0.36218240635594784
0.30667368985372284
0.36554789953992445
0.3283663882393414
0.2414133572802043
0.2684773086738265
0.29319242724717387
0.21954584256958598
0.20057351014876135
0.32402198660112824
0.2662669634214138
0.09019037222045016
0.6295931800834249
0.6917566850507801
0.6683226620568954
0.6425601565703472
0.6594106599993512
0.6991512927299135
0.6796209042064346
0.38439109441639246
0.593141980990565
0.550105132740117
1.8149561213091463
0.38517416804831495
0.42293761070851593
0.48228467078608156
0.48363337483343677
0.40418069832207976
0.46389143915077635
0.299041937114175
0.3710311620290098
0.4129966343040371
0.2698761029435269
0.3305754946546698
0.17249486380925969
0.20052564254401414
0.25631333742058376
0.19498713074004173
0.2608039203985803
0.17535503107231665
0.5987516957441289
0.548631060012079
0.6220543893332141
0.6148430036430502
0.36589626795114855
0.5677965188354247
1.9275183627273451
0.4200994356295016
0.4901524394441652
0.32410898294523366
0.4113539168921414
0.3396487747908826
0.1736411889748781
0.20586749016696845
0.23534436958840654
0.21729920218593268
0.29347877675694434
0.5580240603704002
0.5236647424354782
0.5944895518305483
1.038259734961087
1.054598907835728
1.4315281917897154
1.2473400155168068
1.1036055027739908
2.029882444362272
2.0893070183248628
2.160213659913227
1.9099063715505125
2.13055150010913
1.794705797077522
1.4369684994858887
1.7256434365548827
0.45058799442140246
0.5458582065315852
0.47648949655455897
0.387018783839218
0.38646970972287287
0.17123944922285617
0.12905425693761466
0.22034727999181766
0.2571248932486303
0.2796569027955851
0.9498629586174401
0.9719531533012541
0.8847406397621289
0.907738669932029
1.0148456418136473
1.059852219744867
1.1350904595266842
1.2906920711244774
1.4776756838321683
0.5443157995631157
0.6298022622491034
0.6182649146850251
0.6494703826876527
0.6629702003144137
0.7492747696631795
0.5074452529833416
0.4822388297554359
0.485459293607373
0.38755080412610526
0.21400847262554082
0.19554423047601424
0.2414890888967076
0.2611820365543917
0.9166309005724307
0.8566111240638384
0.8336090656863373
0.865899744694901
0.7342520630951552
0.7621840559178693
0.6950202282766299
0.9914152279818893
1.0580514266368617
1.1885102739972244
0.5929267841761602
0.6154980206819749
0.6016549212633967
0.5618096390856919
0.5132134079700458
0.24117582726975212
0.2654531946191242
0.3132984721229792
0.8315614947163564
0.812353972907989
0.794315927819646
0.783106106616515
0.832122928562666
0.8267901577006783
0.7598039274284086
0.7268573657029838
0.9421514207530485
0.7108930489644892
0.5248944417642991
0.3679801150809818
0.5607850706951117
1.039783562572584
0.6551772558715068
0.6360818590775599
0.7878792335522777
0.5594003208810862
0.28784739818907856
0.3221506943295095
0.33440033024724514
0.6726282795891595
0.7662442798541275
0.7909777679490925
0.7983328790745426
0.7717057487843015
0.3719130379255791
0.5412355134277195
0.15709769746833369
0.2682068820228599
0.46128084349131077
0.7626122615485622
0.6044893732868143
0.8058074275496678
0.8269304976268846
0.7475523254909456
0.6991672709480775
0.344045414830431
0.3560319228019628
0.3259823306676228
0.6788179608224397
0.7629022784633136
0.7883914848224745
0.16312581974373566
0.3540884423552034
0.45545958064865594
0.5441421451650054
0.8494984777185269
0.8684480627684984
0.8802874982997991
0.8399835414538432
0.7898794376061598
0.37054585884999014
0.38052080721873344
0.3589670256053093
0.9042376313500587
0.5665144043643151
0.8322748425614657
0.9035382865711094
0.8786352063389383
0.39962604160144893