<?xml version="1.0" encoding="UTF-8"?>
<VTKFile type="UnstructuredGrid" version="0.1" byte_order="LittleEndian">
<UnstructuredGrid>
<Piece NumberOfPoints="5313" NumberOfCells="8293">
<PointData>
<DataArray type="Float64" Name="Magnetic_flux_density_norm_@_t" Format="ascii">
1.952094569728138E-4
1.906688001485751E-4
1.188734623273306E-4
1.979362250786488E-4
1.2201766944582388E-4
1.3866060605810973E-4
1.9748396065037254E-4
1.2737005563420478E-4
1.9067926488371942E-4
0.05090160794938975
0.05610273831848978
0.0333151390281639
0.06882426393710277
0.09943032057604428
0.05694789061845922
0.030263679691696826
0.03592945097216072
0.02144849131058783
0.1040355400384372
0.16242750522777594
0.12645767433062954
0.24299962480400192
0.24084344220070567
0.26756878749275204
0.2258552752780434
0.22207627434488345
0.0071814370208425175
0.03118855535134091
0.024397520358170475
0.022542574377919285
0.05307306099539433
0.041935575034708406
0.07112277151183256
0.1362082269027272
0.17578083162111824
0.12568482203593603
0.17122863728204277
0.19413621589980448
0.18566997364160395
0.194256583977127
0.18983607771042085
0.19486995267761467
0.26444342487366607
0.30300405737511854
0.19223499053695972
0.19902243994495858
0.19895004680146558
0.20754132893862098
0.2077565528889287
0.3074241001595316
0.41521868829151143
0.0831126865764546
9.510575351209874E-5
5.878748255906251E-5
2.564605046759182E-5
8.457712504313618E-5
7.792747241338405E-7
2.7119571136743133E-5
9.587626281135006E-5
0.1882845641925518
0.29968600756268643
0.2610178303127012
0.1765553361232114
0.041386953436698
0.027725695359242714
0.14912741206937338
0.1594317917233673
0.16695606692357542
0.1523934389357473
0.1460969903682364
0.041814835870926326
0.11232659969958532
0.09966246150757778
0.07294123785163127
0.05692734912525125
0.032732225116620765
0.1348325378893321
0.12459691134796257
0.11927350644387923
0.12402766201526784
0.05136192671931874
0.08475025058618428
0.06717137569442942
0.11188396954572784
0.053438106353937
0.12168775898695687
0.11006131619547903
0.10056617468355408
0.06655667532805873
0.08025514120314693
0.1008617608296813
0.06933850953994793
0.10808588193792767
0.10054206907210957
0.08900419033643604
0.07870718746294302
0.09321187970733613
0.08039299677832297
0.09845193901035464
0.09391813444589459
0.08657239426623521
0.090760102379829
0.0859995471209058
0.09262166127606535
0.09028625852268346
0.08815896904081735
0.08724681562100663
0.08918396312845768
0.08832562480966323
0.08686185876267993
0.08601843752765644
0.08684422269855185
0.08502298599996579
0.08365090217512948
0.08465307526022818
0.08259280104222737
0.08056781025687515
0.08217275277964993
0.07980510042403711
0.07690385469950085
0.07768674960280594
0.07918812574810398
0.07570441568631404
0.0730575910861449
0.06856517377113296
0.07206327027603097
0.06984129501350568
0.05865588351069453
0.05101158550207935
0.045940759660467956
0.056367045591343284
0.044689678116802446
0.04027853050100674
0.037347125675400945
0.02955281643244587
0.02734814430057785
0.031087518569836978
0.026552481591327844
0.020882943650133875
0.05133714765950379
0.019969299705515985
0.016720136551383047
0.01514902266977928
0.043739467916586415
0.036386107992994306
0.024046344433427586
0.031327607185585214
0.025358969444876384
0.020530109253469788
0.016550102342672842
0.04045902292513337
0.031850409769372895
0.03103676814629148
0.027065802001006178
0.02363760254533294
0.02070423219775443
0.039558524253222926
0.033188831339270954
0.030603975880182623
0.027742809231373806
0.026988849962629013
0.04024006993962012
0.0344178224113669
0.03041154019903783
0.02913788396877026
0.04326178361573954
0.03673760638733127
0.03984786948009891
0.04435496914968438
0.050836405029763686
0.05061374288306107
0.05601441544433152
0.045514731586210284
0.05834570785965785
0.07002728397857982
0.07075201061549495
0.07221670634554979
0.06852308444306209
0.07358874247610209
0.07672955187192196
0.08022657725787509
0.08089156203920583
0.08255738187809714
0.08446564115557355
0.07816795790724237
0.08255060780352699
0.08526542599756042
0.08740160928784561
0.09049277340625758
0.09100863269741884
0.08966131886162165
0.0862770357088206
0.08858059049312712
0.09091867302826069
0.09181153420208728
0.09083075021437446
0.08936156672159805
0.09227458920169213
0.09122427392116439
0.09355957092253593
0.09352996294334562
0.08828224337337777
0.08800246776178611
0.09617457282345544
0.09341205126568695
0.0974399688899321
0.08242383559940868
0.0905084013215351
0.08123966015680856
0.10256073578939691
0.09819950764758655
0.10547727976759273
0.09594912352841728
0.07264593070726473
0.08401845714997003
0.07137172969954277
0.11173347227275592
0.11579286807764023
0.10926420838500393
0.12505426363345068
0.09024003758342819
0.10464358206209415
0.05762763554988567
0.07363958713883119
0.05987039867156466
0.12048245946202818
0.12715047677731842
0.15107911571956564
0.08033627525362753
0.1266206905343588
0.10398905050327856
0.03900877009784625
0.05952116108387396
0.10535881046022412
0.14139556572278578
0.0673872863948577
0.17148444665877283
0.19425181724146684
0.17432455990304865
0.09337230182492207
0.13348383723797036
0.04198776674584525
0.13142943530693807
0.06763953585636946
0.30026592268564567
0.28174497879561783
0.19576551808619827
0.12280911677145134
0.13231778399031763
0.15851999441913536
0.2097523252718643
0.05566779621150732
0.03687207948033005
0.048989095378809536
0.12392402783038185
0.12351638947092998
0.08303677686033394
0.09815058213288429
0.1027127721839553
0.11872417274980021
0.13315091760423692
0.11702025237192289
0.0327513378615605
0.06567338285462478
0.05426126797052681
0.10243260184487817
0.08433710408990469
0.105649501682382
0.10485442600374695
0.10449627301163637
0.05824609246723509
0.0963365530805741
0.07098182318571247
0.08736728704483902
0.09739020586309151
0.102260496375891
0.09723510683488361
0.07390593516912751
0.09055463591113556
0.08264216751743103
0.09247150867808118
0.09583655326580863
0.09259149922106891
0.08339758647038058
0.08786759390798714
0.09024519747586815
0.09138529059514355
0.08956962736116038
0.08714579980865152
0.0882682506464401
0.08747376081903245
0.0882933416220642
0.08698954012465676
0.08563068444283974
0.08569015713036011
0.08479190135695691
0.08367249828706054
0.08287561015136459
0.08138821384362509
0.08148103918155902
0.07928302050767386
0.0794488177236757
0.07749766556112186
0.07716855007086333
0.07811239647100936
0.07306460240902476
0.06412235150513906
0.06611742337054505
0.0641754896480939
0.06212265926912929
0.06425914467149461
0.05528644256688595
0.05066319092575345
0.05087788854462448
0.05521485191669882
0.04723485726922429
0.041127132361089065
0.042778229548711987
0.05093157870201987
0.03488697336845293
0.04180842427672993
0.049440068644848935
0.03266726084855155
0.041727466343941116
0.050457896697406475
0.0346211462599798
0.04240414344209311
0.046652714446251645
0.05420245186944376
0.04053741619463808
0.04974162576142598
0.0541146947691203
0.06243067834219006
0.062400134070867766
0.06357150999835216
0.04950182908515479
0.06036572267917607
0.06834771386189846
0.07509574089327012
0.07429428023454013
0.07586956491516196
0.06171925890206443
0.07575226231799795
0.07763615458268328
0.07891863166324282
0.0701371166302287
0.05719583190129768
0.07169868266876554
0.06152965235970398
0.07392665847293539
0.07771727081957427
0.079694616379469
0.08117667414129945
0.07788516017325532
0.07892436740862575
0.08189177148253925
0.08213022930887309
0.0801654925663061
0.07271496630899743
0.08724818301075683
0.06476255801820512
0.0534507854263504
0.05465077969267975
0.08301534130566283
0.08249990812785267
0.08249629922504964
0.08178346768746492
0.08074189742633979
0.08406418662518927
0.08442318324528682
0.09008500074696396
0.10391782871373358
0.07720368911162712
0.09624257189731696
0.06038154991387964
0.03167160874255303
0.08421672292582186
0.08358036743146897
0.08870365828267637
0.09889966331713418
0.11341694069648516
0.129724551983115
0.11798426187423809
0.0848502829875692
0.1193375547437805
0.05513171183002652
0.08769754409938357
0.10737666625556959
0.095370602628178
0.1560091719863743
0.1426231006232449
0.12501017886995344
0.11914493509352553
0.156234439475879
0.18564932458578992
0.10388183746572317
0.17792862986042587
0.16526242583480183
0.13763677750489486
0.09472112334821597
0.2680666735492336
0.3211398376573876
0.14412368521696306
0.021915776744253455
0.014511287697164107
0.14596682261525434
0.23725070979606064
0.20168881848849587
0.13850282497031463
0.14508267751963677
0.01888972070917908
0.010921273510975375
0.11553215854225395
0.11673528330493371
0.07626337261571624
0.0630067289412504
0.048629009876182655
0.02861435418383475
0.0380622902598099
0.11489955827502586
0.11435055733904687
0.10497515662532848
0.027159811013254053
0.0850555481014027
0.05663505525516147
0.04078895313706712
0.0926268732210126
0.09424895360837715
0.09146649667935214
0.04416658551034789
0.07302776276860244
0.05740576539506841
0.08108195006380839
0.08322972463693591
0.08168561906017997
0.06005855664560667
0.07046527804189602
0.0772352484030529
0.07690649195981558
0.0761316783246503
0.06987672408205003
0.07337074498242609
0.07352548521554382
0.07281643093222785
0.07213452199480709
0.07206268911223493
0.07099605887436629
0.07057748407914101
0.06989508006450147
0.06813640927783873
0.07148727779067908
0.061880418002929115
0.06442675340590097
0.06362639516942807
0.06236805283466975
0.06142877879815436
0.0643769661606861
0.058869078355849334
0.05722955836572521
0.053702860445837844
0.05490733742235456
0.058414506851181235
0.047499636125319454
0.05064689294791782
0.05440241454447136
0.059437447303634865
0.06013954031726058
0.03945562076824694
0.06243203804831352
0.05845314702576754
0.0430727695275482
0.04750022394698993
0.05334518164992511
0.0769510794161174
0.07273597009854606
0.06833108873056333
0.0655032810686275
0.06363283345000055
0.08488191509973103
0.09788544091911029
0.041498837460254255
0.047448530874200166
0.05416327827983419
0.08308059887966217
0.07490272781935924
0.07274286928467334
0.0697704798202825
0.07001982830787112
0.07227897747473082
0.07213158877481028
0.09214098798179038
0.11448653501135564
0.09095170629316969
0.10730354455688516
0.11919958445342764
0.09391531838082169
0.09207943262422065
0.13511505948229463
0.1181502088577842
0.13818091380675662
0.11998825730429595
0.15612720914844133
0.04892711951012235
0.07124703838033457
0.050430331208490976
0.05793145473876826
0.054425463898377574
0.05661297236145547
0.058228826178709336
0.06362322889545849
0.06071407007543982
0.062740677075644
0.042903731393916185
0.08011026417008527
0.07432924823075122
0.07267950422805407
0.07215888369582445
0.07409251813272291
0.08595424108906317
0.08572194561045936
0.08859539825758071
0.07161567688737434
0.07089471310959922
0.06354380199510481
0.07040405827340378
0.22012788796051996
0.21826631581729108
0.04713254917680174
0.05310108429505525
0.06152578615496074
0.07773438909104675
0.0736495331292364
0.082620144661679
0.06715226763842072
0.06923379331310867
0.0697662335329691
0.07123510695305195
0.0609708365488053
0.07658407663858217
0.07250490888450066
0.06890452613162436
0.04054683861262571
0.07038698328302574
0.03832572652955524
0.03048304356345784
0.017802870290570413
0.046065128390671416
0.05283521867201629
0.04832164350081655
0.05061691823769368
0.03676677054624793
0.007944523409845866
0.02430885063633341
0.051058531007182405
0.0523975386713155
0.04331989601282462
0.04783777763400673
0.036089630759925134
0.02621364495332573
0.0577479669533521
0.0934523813607635
0.07229135864117264
0.06393766814929207
0.05156925070757229
0.04528861206622119
0.03893139333001391
0.05935742613669907
0.0600162515067045
0.05692426378570506
0.05151790172567997
0.04749717070237713
0.055815107788909524
0.05579658685012338
0.054125839892286934
0.05211288109195835
0.0542652303660355
0.05656845741518257
0.052585493907876944
0.05351960561465422
0.0497059628877261
0.05274366783925882
0.05187479238362184
0.0513462933331952
0.05196671002776312
0.05358962979715935
0.046528931006052175
0.049691311643410646
0.10853726778174184
0.17177765308714255
0.08464104895438945
0.048847752470921456
0.04887700118919217
0.051431899458164225
0.047892226623940604
0.08943239532285666
0.09216277382310929
0.08901378763434008
0.06767378541382786
0.07445895088257437
0.025139994461912746
0.06576743295472437
0.0418680639369288
0.06056229586328703
0.04746241941039908
0.05045860703260746
0.044229386995102184
0.0640009296331491
0.08006484160879691
0.0724402360092039
0.06510763444529805
0.05064531492197771
0.051809599656240025
0.05289640215977942
0.05204928113227188
0.055075091763230055
0.05528150649571911
0.051429544593370825
0.053061027121532524
0.052947948508052574
0.046425451603242046
0.050069437417606465
0.04629072542784227
0.050250204913069196
0.04863679285974267
0.05099960747481369
0.04822121411059935
0.04715074338117795
0.047395618967063076
0.04291810872108457
0.06120166848990501
0.06802398452431756
0.07409897479094271
0.05233088759161771
0.05016064048183619
0.05524953415603475
0.05216851184406598
0.045674378718015336
0.04220120514450757
0.042713870577170764
0.043774306894096844
0.0589644267480418
0.05090667737566018
0.05025559393407001
0.24917670285015323
0.22077377506919374
0.21469202170451845
0.14657276132495797
0.1751514500433078
0.1830233990782111
0.18919047428443383
0.1999684019890955
2.175163798164823
2.1290234089202396
2.1484447682995618
2.08798619021961
1.9892558350539857
1.9430273596672334
1.8129489424127632
1.778498145494057
1.4476267277251709
1.2105221227942358
0.9402380296312298
1.816452020993693
1.8757977459186315
1.5187013961312634
1.4043723904281324
1.7614255202390188
0.6772844632105514
0.7046502651557622
1.2342797953265179
1.6550664407684108
1.0746097328376054
1.0254305725817001
1.0170815742097072
1.9227028432561808
2.0050285187807972
2.0840603521940517
2.1213403770163226
2.0376019262102645
2.0116837323672265
1.5377913350801746
1.4632225976410236
1.267471067171159
1.2305278348142703
1.0984619810931726
1.0905593448273743
1.012147254982885
2.0993653140668163
2.023021446304999
1.7464510295712254
1.5178166103896047
0.5896748522087086
0.5332229641089533
0.5562011515295526
0.5697145637274063
0.579963374629182
0.597967269495786
2.0079667744521075
1.764408313604279
1.2349864965644415
1.1128067842122842
0.9045258893201522
1.2658645740384975
0.8737065073241039
2.13537938327645
2.1229783968685525
2.047638838252979
1.9627275058009277
1.9010762720036993
1.842424658053881
1.7448696910757757
1.6491320558025062
1.939669116948334
1.918196132366667
1.9152074671620913
1.681237765633657
1.5093943021819236
1.7761336876949656
1.6963434414997298
0.95196820290457
0.8745429525025842
0.74391933585685
0.7699134296421839
0.7757990508771059
0.7346429537815705
0.8047633813085455
1.7897028539348654
1.4953849522601055
1.910963502401877
1.9068340739654548
1.1631430572560395
1.0502674149033764
1.145770714747778
1.1276327321659396
1.3187710296465585
1.3835253816136215
1.9089585635730437
1.9238576206618634
0.9733859254083477
1.0039230794753513
1.007235702491994
0.9448828173012288
0.9791396153286599
1.028106439896821
1.0353966585385657
1.5355195784703413
1.3532464747874047
1.9466154719719102
1.9846133951738598
1.1951422959822509
1.032435482567287
0.6505304557465177
0.6075269823708619
0.6877715088073398
0.7323282919291458
0.8209845308798256
0.8697629602592316
0.5882633935535101
0.5416523380709876
0.548867179384856
0.4457954870999162
1.9828098182057854
2.064918917557357
1.8668588966585906
0.36727451189119326
0.4541817417231025
0.3307538148603946
0.2858389280319835
0.3378890548375191
1.7186704260723606
1.6440883724379847
2.0757815516549174
2.012590558898715
1.950987265742369
2.118099645813822
0.25037642300285057
0.29936074785875405
0.25033651948366403
0.3174194374042871
1.5389909831210917
1.3858591765714223
0.5048198087465989
0.7775721824889161
0.4623737195204412
1.7240733353094178
1.5841055697023292
0.2616225792265166
1.288729026434589
1.29607671151474
1.212412171722457
0.8324430804716677
1.020209204692147
0.5707741901668868
0.6252481275620035
0.597395558387621
0.7373395011535987
0.5880587209129128
0.5362002961892283
0.1383729169977647
0.025814793710563624
0.18093725625930068
0.539454483335459
0.6867158584470036
0.6551823153537827
0.9053245436823149
0.21291443909343563
0.24117231438389236
1.0425977958211678
1.4006768244445698
0.19985325943735832
0.14981019920713562
1.7120416863097756
1.7695131919432139
0.11147549776834076
0.0178910147531961
1.8722238911283873
1.9534961829824722
2.000976437704533
2.1058555737051616
2.1267899611127996
2.0819811703359097
1.8065420923524862
1.6690035327290944
1.3762301404516641
1.276062787682303
1.09355468240235
0.9676020308113911
0.7167025679351923
0.879643301365586
0.6609309314731379
0.6848356324207495
0.6261146596702939
0.6949413270798507
0.6547691596187646
0.8492422333591007
0.8689518466265859
1.1397991031916879
1.5829245170434287
1.5537204740868695
1.814778426306674
1.8681861235925694
2.0536404468665417
2.108422647883216
2.20032710488005
2.1668270048086447
2.028928298454293
1.9530858298220088
1.6996088783483312
1.6214256191833474
1.4051539278930134
1.3537501385592894
1.1996727381102905
1.1738188734763708
1.0670933093981771
1.0406181136977632
0.6662735092351892
0.5936233670210305
0.6718747205480629
0.9481025304039976
0.9495212768705535
0.7988099133879615
0.9560609347760648
1.0938004790803306
1.4515397711616436
1.0106966666180581
0.8450768893298088
1.0455176021904313
1.3681557194001521
2.0123511141585406
1.5270164540911126
1.7669472261428034
1.8313151932013148
2.1595006891205797
2.1940111794627564
2.128414767198271
2.0593237519251235
1.9851712477747252
2.1214488366485
0.9485893861696733
0.8768587333729106
0.6666707379643939
2.2076405315739
1.944919125832013
1.7844731499258628
2.210897624442731
2.05392722666623
1.9086460111032189
0.752048445397761
0.45776717711500786
0.5394346475449776
0.33458726807475697
0.4335166717808371
1.6402927889674643
2.039270828354463
1.559993723320284
0.8803247237622538
1.891156922787029
1.4978512986493495
0.14727130571696295
0.25483433249535264
0.347658811456582
0.4245631093379437
1.3498411151810754
1.04857473800829
0.9081309960575746
2.165572182737001
2.071711472684008
2.025723410196041
1.3008281073917098
1.3537304675437736
1.0822411252707373
0.9569882504306705
0.7355635384265902
0.7905636492451656
0.7091564667277677
1.4318226200239657
1.236368966926796
1.9476179433084453
1.4823186850639514
1.2633303664185351
1.293899130947891
0.1470442512224113
0.2822729535503369
0.6161424281414738
0.3605967705511553
0.4729388274738849
0.5595265083504032
0.3551911622395415
1.1067100120371876
0.73968112123739
1.12517920864092
0.971269378214837
0.8630638931204946
0.722536412022308
0.5546999607730821
0.6411041177863731
1.1881702428839993
1.064740949118746
1.0325605537734215
0.7535959126158359
2.1051303256929166
2.068702576211302
2.0506962988844046
1.8911157686311335
1.7990392150871921
1.3865666643799348
2.1419780541964375
1.7828759070014333
1.4369567748073238
1.3058871369409373
1.1532783200580252
1.0548452156959611
1.023635189669388
0.6698760226348193
0.2638422325281821
0.3393993001191087
0.599009494328837
0.4271417529907143
0.5082887564156795
0.3984871552837114
0.1837963345028028
0.8419944874098894
0.9429342598851811
0.7368995853137669
0.7515412274304125
0.6231101480638248
0.4750295090841828
1.0197669863203436
0.9125432886386373
0.5217386215801415
0.5342765539465462
0.865925356386807
0.38784131781524095
0.4947401647286638
2.1737949942127806
2.0278367932284076
1.9033211404372652
1.9741614218394226
1.922704361251047
1.2752302108993738
1.0762842154130514
0.7178900718166861
1.6485086359742063
1.5070844222259983
1.2289115942788742
0.9939141534180317
0.8965528055332954
0.8194492490572617
0.6107943108256757
0.6995846713630457
0.5160745483333646
0.43230024413323487
0.34096882049820126
0.3879647792580121
0.5580817162637016
0.46945065050404644
0.4240903367801261
0.34631597548626664
0.8064163444432995
0.7213255486322098
0.6558833020181056
0.5277108406305109
0.8824408154339957
0.8033357981475343
0.14968574350405323
0.33244387916458357
1.9087501339223678
0.3502425375067327
0.8873184266450507
0.6506513972592949
0.48144676947235804
1.043344654884246
1.4056984724158141
1.1255535044564444
1.2419567997223933
1.916244811027702
0.932533345144997
0.8265544676033451
0.7222183710868036
0.6786935446014237
0.5830191414003811
0.4888821266207081
0.4252449087317732
0.39313639356278623
0.4237183893722604
0.5188777833906401
0.46093414740083904
0.5067276855999546
0.728625550647734
0.6684414188225185
0.5907467362045761
0.7782184183381653
0.7242388151955872
0.28028420715508545
0.3843808444309171
0.36123073718746385
0.25571949921999
0.8351211699911395
0.717470533172188
0.5956084674830753
0.4774523063894088
0.8599976955192284
0.949740785019913
0.9686787395891199
1.1643970398694046
1.0472780401335815
1.403625140497257
0.7590177220881383
0.6735381501239578
0.585330287709435
0.5014773605455595
0.4435244087926794
0.4257903915445123
0.4392724540329092
0.48782499878138347
0.4533268322408394
0.5913087615460301
0.6759374861848687
0.6335431063745597
0.7077495530048442
0.6747534127477764
0.39444517634449444
0.4439900733221114
0.45230452100026713
0.39186639292063624
0.38924427731564254
0.6972837522183627
0.5515092131082296
0.5088767658602681
0.7921534181146679
0.8570772268756036
0.9625447631881716
1.1151360869104832
0.630584874064859
0.5682139377924206
0.49473295538224615
0.43987193458640755
0.46066141127797927
0.4447796546895413
0.6296513432514689
0.6474935327885435
0.6649926944003853
0.6483468331339427
0.44972162424327006
0.46955721221381425
0.46812215836332033
0.44792053732635967
0.4489271635575158
0.6035003755519861
0.5199859192334064
0.6873283368421433
0.7687588851204231
0.6148490254098988
0.6870616965134996
0.7960523213797183
0.545280773145922
0.5123622481626141
0.4871162999976534
0.4378380508998207
0.4343021846068838
0.4343770521044516
0.6375250499838979
0.6347305732091862
0.637572911337973
0.6306467045480326
0.47121056930271094
0.4762972420885016
0.4923528623080288
0.4762457548342229
0.4767904543589032
0.5532477314423636
0.6169018019519958
0.6089856545477417
0.6448519208938517
0.638018591096027
0.5747395289257056
0.5525030268529746
0.5831483743582319
0.5801504254397202
0.561255727729688
0.6039671959701873
0.607229151330257
0.49920980566864137
0.4873390953218902
0.4131771328585263
0.4069408906896703
0.4212741115302696
0.608494794281978
0.6627567425067852
0.3815455232524013
0.4538575247638396
0.4418560373592864
0.38553419193608535
0.4397172215791227
0.3992781777689318
0.45234959028405347
0.41140876233046897
0.45709531933228514
0.42327980721021197
0.4416604063066655
0.4756672901724963
0.6272805005439269
0.6179209442087398
0.6145772581628606
0.47257294742460504
0.47354809146458554
0.5115657069335292
0.48363329395218324
0.48925510101343134
0.5199866800647671
0.5797628711959595
0.564909045715629
0.5709848298639475
0.564009406709107
0.5731494595222298
0.4793550669699917
0.4827980578174511
0.47547225576088276
0.466156201543683
0.39119050970811514
0.37722408280717995
0.39563264456010705
2.0854673382803695
1.8682911659371542
0.5827407314142944
0.6355220138871029
0.5872373632827874
0.5436114315934842
0.5420276646202398
0.5041612035459512
0.4824002646928614
0.5045708871140576
0.30313460676594356
0.3696644310123209
0.35399722018539564
0.4424067714374945
0.3821068614271245
0.41071277381883553
0.6068176468243253
0.5948830515329395
0.5900832426603814
0.46544667297676784
0.45886645358094447
0.47155274358070326
0.4528350846899724
0.5493111969616248
0.5405722751569142
0.5208349807297301
0.4734255693213461
0.5031119127097176
0.457626191735054
0.4535153938920814
0.44531544708183207
0.36546994200968236
0.3456725371163137
0.36700599142341184
2.075509622816113
1.8184324491919992
1.7857878983336963
1.7291047004673732
0.2476935694191481
0.21470586379939047
1.5878858691665962
0.5112823795407762
0.47073906773457797
0.22902791737477382
0.43188284979906927
0.313350180258717
0.37202328914691735
0.5798396429886283
0.5688571180257148
0.5612938628772087
0.4802037367157125
0.4598264789087055
0.4889444964589891
0.465109671420189
0.4741468703355694
0.408616701490772
0.4394325136250678
0.43944123085036135
0.4093582887954341
0.5441395746836589
0.313664031903341
0.33757249849242127
0.510119988127638
0.29810902888425744
0.27661979718278956
0.25167978219970555
0.23215433897233004
0.1973987443126209
0.18796736519171064
0.17722250058489983
0.22075715579686633
0.20983639461405038
1.6229376850843926
1.3450058787984391
1.3965893998623775
0.1585139506090674
0.1512032912194452
0.15179038329049122
0.3585008189475449
0.45024614980375016
0.4061446271791716
0.21280129628711406
0.35912096834464197
0.3007430187049584
0.5744154638711134
0.4358355351574497
0.4564656625488365
0.49153889896237746
0.4238004211141711
0.42695908865831794
0.4233528055137983
0.41105065104503297
0.3090937055536304
0.5017604312345457
0.4336157753966213
0.1231834319969218
0.16333479090260197
0.29453204696165175
0.24188489794216061
0.20187975414787332
0.23623013863139905
0.21771322441352706
1.349077792862918
1.1656389093306905
1.1985366217877578
0.9957128133017429
1.0148404215153155
0.9473109555582676
0.07829234996529226
0.10479183891697685
0.49076698188605744
0.4401351849007991
0.43702924115558756
0.48883118107639856
0.3838889656140901
0.3858955905441504
0.34766828409596895
0.4577750235417762
0.4212139410259865
0.20720107653159175
0.23606510825503094
0.2515205233449464
0.28032201030439036
0.24197841029911524
1.091817988735483
1.054446212696558
0.9376269625153592
0.8873669703944855
0.8847222536169576
0.8574652933502359
0.8341385081642173
0.5215584317177724
0.4380766379651659
0.563176579687685
0.564101964952543
0.5365980422612792
0.5661666478686046
0.6223620666052851
0.48271855440550526
0.42189506824558665
0.37151762301887664
0.4345715983791873
0.5012447973108214
0.3769546563012154
0.3131591436344155
0.3474594511502934
0.40968116222859446
0.331197734888892
0.23133279879371835
0.31441729312077216
0.2576876784977764
0.2329098319514562
0.4487780697448007
0.7203661686742739
0.5893709649872593
1.2978153022989827
0.4105842335636486
0.26955703931925473
0.8335486612973634
0.619845704104577
0.9392566149527161
0.8509084912998887
0.8125788920389746
0.8131727090223875
0.7833549710278939
0.7114543630145437
0.7569750355876642
0.707602462021299
0.767462984509466
0.46231506912255443
0.5873664940361738
0.6232987083658982
1.4420611615756092
1.6705800888119384
0.5236228539060276
0.45034712384308234
0.4870502180348968
0.5014507599969413
0.5371137336981967
0.43718888439773257
0.41738816616770613
0.35798484265887365
0.37943579621614165
0.28335372254758207
0.33839853930867175
0.3487354126065712
0.25593689609405396
0.2841943843677291
0.28214507466786576
0.21116646022750915
0.21202435082493307
0.26845437083406004
0.2736810245588277
0.07347877339850417
0.6441273445966683
0.7112699754660667
0.6905259247820137
0.6633276974159364
0.6799365043459774
0.7194163982781957
0.6999094393261693
0.4042375408287971
0.6138015543727245
0.5701086917722984
1.7914897117669273
0.40219914118542643
0.4401214396145008
0.5010960763906659
0.5015253388085502
0.42867054063629206
0.42923477887737976
0.2772704972202669
0.34425372321161574
0.38306985684774697
0.28505607103191927
0.3498048943882117
0.1657713876175815
0.19289811894752218
0.24677122440868807
0.20549772023771595
0.27485278793165163
0.2062744618057589
0.6190384611914892
0.5708216063829146
0.6425658892885433
0.6363924844550827
0.39321894987799033
0.5876697656463855
1.932425553981032
0.4438105521439184
0.4553343715098572
0.30129868462002546
0.3824215171861376
0.3581257036920717
0.16698987966593837
0.198133739637945
0.22667886283476846
0.22854702002454655
0.3088404432536436
0.5770221859917003
0.5476365637561899
0.6159994893028744
1.0085722419488217
1.0274137429186758
1.3912192283707665
1.2125249581688613
1.0736038216625616
2.043956123165752
2.1024692120104023
2.1709827645889384
1.8912872213888405
2.1207247658734087
1.7627519993219196
1.3973449090944365
1.6891106366974717
0.4743599906720124
0.5087826122782689
0.444050799478145
0.3606460766588135
0.40616864300465927
0.16478815132700494
0.12428672934961045
0.21215968510394786
0.247689692974335
0.29377181277954784
0.9096719746488606
0.9357845020284038
0.838059143386405
0.8625072473487302
0.9826746628690932
1.0350897748837231
1.1060366900888126
1.2492388911160728
1.4302669849834693
0.5085032179297123
0.5886183213965314
0.5784065801802983
0.6078237773303293
0.620704236661345
0.7018425227568958
0.5326726373244938
0.45051433057521545
0.5089596368571071
0.4064476672964538
0.20605316650057412
0.1882651716413354
0.23258325291631066
0.25165848084400483
0.8664812865528603
0.8082158061134939
0.7848727590710824
0.8163821553113177
0.6882266808438671
0.7148374028860336
0.6511981549183661
0.9331511636866235
1.0336963557760843
1.1480784512075837
0.5546447847122798
0.5764899111007833
0.6299831733029347
0.5881856245010192
0.5376456166195037
0.2321977956105593
0.2556368810209493
0.3017527736875591
0.7722216755641825
0.763225069057261
0.7457675800051821
0.7347497481742105
0.7793260688846787
0.7764041633474377
0.7123289840170176
0.6813831842510683
0.8582522012596256
0.6528539264228904
0.471564233237002
0.3255277695463291
0.5157919751754715
1.0022287939543542
0.6849655599505409
0.6649233632547057
0.8228389719584834
0.5850190817422067
0.2771285796793895
0.3102674467910017
0.32219787272514483
0.6144190393488685
0.7096565864849312
0.7412609105433681
0.7455477460127558
0.7230234952547181
0.3166218169211577
0.4832564039258959
0.10646781162568182
0.26037212317534414
0.4346346707809399
0.7023561276020599
0.5706964593708351
0.8409264581721326
0.8627810226450309
0.7806461122655811
0.7302166304049648
0.33129024712144367
0.3428483793818688
0.3138321298625205
0.620013379621864
0.7069840338568675
0.7364868167410868
0.21559369285378913
0.38002359327453883
0.4548070176746884
0.5280533885413229
0.8862647582943266
0.9058315055884991
0.9182424352565753
0.8763905626647306
0.8243988997225467
0.3565873214011805
0.3661394859125897
0.3454670652113425
0.9422532200615648
0.5879247318555418
0.8929396368136135
0.9426348108216341
0.9167940548693162