<?xml version="1.0" encoding="UTF-8"?>
<VTKFile type="UnstructuredGrid" version="0.1" byte_order="LittleEndian">
<UnstructuredGrid>
<Piece NumberOfPoints="5313" NumberOfCells="8293">
<PointData>
<DataArray type="Float64" Name="Magnetic_flux_density_norm_@_t" Format="ascii">
2.693792514681782E-4
2.627142567817311E-4
1.6383511236617575E-4
2.727259666741876E-4
1.6812146640290555E-4
1.9102877463354832E-4
2.716314537033001E-4
1.754364849682419E-4
2.627451011393302E-4
0.06554320202365974
0.08375868920877666
0.04631272505708558
0.04651809104707869
0.05536721574694187
0.033356291581446894
0.05611074782708256
0.08187221899686353
0.044489918379277536
0.12761919117758166
0.1980138469223791
0.15231562122690886
0.12422858362247284
0.12403076522647376
0.1803252938290872
0.10002142639930305
0.0857182694860356
0.08809512568653784
0.08918682571670684
0.10111671541391892
0.10243111330754774
0.13548708663527595
0.08284605861445929
0.08085054419517769
0.07041430079437778
0.06858688466125407
0.07362675298606099
0.06629891061527063
0.06556856434749846
0.06365057195761224
0.06410330858172085
0.0633040041860124
0.06403954995490335
0.18386051112550328
0.25786825907681493
0.06393349592772678
0.06546569392106645
0.06735662944212335
0.06968433819101187
0.07483203852917794
0.2647301954349529
0.44130193637101217
0.07426930468445704
1.3105280965259732E-4
8.096748752373517E-5
3.539863589767356E-5
1.1652460342527905E-4
7.139064590026993E-7
3.735990366955241E-5
1.3208127792293948E-4
0.15621080259012016
0.2060167166990421
0.23119356259233861
0.14058438597489614
0.05270859705941824
0.03493838758774699
0.10516898705924464
0.14180110622484354
0.14934160938677962
0.13136229664332402
0.11986742073666452
0.05056277251765784
0.11328933392712881
0.11115182343227355
0.08541951228563906
0.0669931638902095
0.0388529756609955
0.10946672168057832
0.10864532935708593
0.11274505773564099
0.11182974569746655
0.058801605295747274
0.08919767911316438
0.07360957999343631
0.10280098120474149
0.06002047290722796
0.10586972786606741
0.10064386028252502
0.09731701076723172
0.07174084703583494
0.08287400853381775
0.09576598567340076
0.07354277903394017
0.09906863869827114
0.09484249446838755
0.08818896444320283
0.08076126647363133
0.09034097008555776
0.08165325153972079
0.09337244384024775
0.09038046355983319
0.0857790885455222
0.08831053030434648
0.08511969028538352
0.08935931095546033
0.08764646382958396
0.08617867361386791
0.08533052304059226
0.08662862478466975
0.08593339070498943
0.08458164800861163
0.08371787131427845
0.08445002086699341
0.0826116892221454
0.08115319345349768
0.08220267528005872
0.08002903830751627
0.07788668409461924
0.07958279796783314
0.07708300222677567
0.07403013709722273
0.07485365267148232
0.07643208395484169
0.07277200103170786
0.0700038256562643
0.06541284132193297
0.06897116662125442
0.06656595064135779
0.055731093235221324
0.04830390865088954
0.043461803942659534
0.05350461748585139
0.042185215245030695
0.03797896037131188
0.0351686852559008
0.027815334889686127
0.025717768486448883
0.02923207424710836
0.024949125087375734
0.019629059842937804
0.04853143073368977
0.018703086968788613
0.015693509756967806
0.014177764312820723
0.041178646424422066
0.034210516229981044
0.02256032493224517
0.02941645570665234
0.023740613623103337
0.01919246474362586
0.015439483589106032
0.03797231133392212
0.029854634370369077
0.029038395870602907
0.025292415928154937
0.02205539089358968
0.019285146513061943
0.037014309521461154
0.0310084868146742
0.02854835099904327
0.02585267343042837
0.025125196347431048
0.03753573939214094
0.03205486030959117
0.028310633495568498
0.027102243229156813
0.040226437483575635
0.034151183348329235
0.03699321001937123
0.04112694948446243
0.04706664131858731
0.04677846077996593
0.05163848497094731
0.04210858786736854
0.05373336686080187
0.06427780833091074
0.06475755692492213
0.06598881462020434
0.06283294875295685
0.06715926276896694
0.06978076062570471
0.07268287176111059
0.07323402845945777
0.07460780793135122
0.07617770846121641
0.07097917604557298
0.07460513117424857
0.07683319599531516
0.0785774156781247
0.0810482871405273
0.08137012788401361
0.0803919673540859
0.07766537528491839
0.07953795132214272
0.08146211812852187
0.08203157005080881
0.08087795724877112
0.08019340081320492
0.08265040233166364
0.08111667915485687
0.08372550472019745
0.08348980702050553
0.07811468888019923
0.07769104951707546
0.08621705968138853
0.08308159731767094
0.08729638199074663
0.07230729429344034
0.07982302429550388
0.07102033897787302
0.09255924372421222
0.08755626167831694
0.0953659975722605
0.08460241109607368
0.0631141476370045
0.07318504125826367
0.061753797053594246
0.10268190976759572
0.10654642936544179
0.098075015324824
0.11455608696708908
0.07813588888663146
0.09182353770135068
0.04960549229808945
0.06319695820584544
0.05130045409591115
0.11451292223391885
0.12074800183514856
0.14082128192351703
0.06807760910361034
0.11250267881979213
0.08921340002400201
0.03323224443824853
0.05042697424139659
0.10429352060713969
0.13798302080156785
0.05602319375768309
0.16477580915660947
0.18159121541261247
0.15588654742626878
0.07698963423645931
0.11292585806179155
0.03545971172958005
0.13847276624188015
0.05440367283642648
0.3025548213625135
0.25432568576049075
0.1659866842029986
0.09593607598108378
0.15599169727580833
0.24988783657355318
0.23759490758289145
0.03748998975529588
0.02471179391241593
0.03486576178014843
0.1336046395470378
0.13637360448631675
0.06382991283295758
0.08414350818090172
0.0961606090142344
0.12801930481236826
0.16250409730336818
0.13077702732013805
0.023696205460909486
0.04911044021133259
0.040906988004583714
0.10031418129581879
0.07188730714640464
0.10892431166251328
0.11749483685485136
0.11010802935859036
0.04552983203183836
0.09371934685913616
0.05870582767070448
0.07949669554269541
0.09700327514942704
0.10767910405981368
0.09814400123150384
0.06315350365215061
0.08599648844652169
0.0744673669655632
0.0900719404826739
0.09630002304546094
0.09109390455842493
0.07619817261638946
0.08310250006255783
0.08737150610012487
0.08960524603576005
0.0870538722337258
0.08267565525680524
0.08487307307427445
0.08470573123107755
0.0857779141609108
0.08381744127887816
0.08293148856518844
0.08311348006012524
0.08217315387354207
0.08120677388258586
0.08050425687295452
0.07915235230954734
0.07922831941129235
0.07724324927219785
0.07739746279642692
0.07564314920282954
0.07531285590456563
0.07636736138384752
0.07146475874115206
0.0628484091550387
0.06486862491379698
0.06304088330559743
0.06110608064807414
0.06327025889042687
0.05453694335217233
0.05000137399146096
0.050300559652100965
0.05459816242172771
0.04678518969129177
0.04073070207543566
0.04242439924473808
0.05052051509352938
0.03462808423483666
0.04154000592638739
0.04917764079460183
0.03249019132857156
0.04154651777988127
0.050331934005589954
0.0345037736150508
0.042300389308052674
0.046603868562803935
0.054244496619763716
0.040495569325419624
0.049779474057515254
0.05429197945433027
0.06275765034016222
0.06290664197632907
0.06413159433917363
0.04963053293860941
0.06073188301799317
0.0691114809910644
0.07602589420647271
0.07531715847679528
0.07707365417060859
0.062313608961124624
0.07693670604208871
0.07898113783440487
0.08038262487117533
0.07330695735854072
0.06027071792237232
0.07472668410163148
0.06501785276627205
0.07495884792569325
0.079065562062729
0.08122175434853278
0.08286542962490268
0.0806185290904291
0.0815190529961879
0.084205941624701
0.08432642116017504
0.08302591932373053
0.07620259528797187
0.09029421324998477
0.06865671013334439
0.05698430392764201
0.05835689654374495
0.08503740868096438
0.08440923343194766
0.08432847934209108
0.08348814953503175
0.08234897524132499
0.08637214373886248
0.08647975438891306
0.09218531950109597
0.10557518446595518
0.08139106916439741
0.09999704870855552
0.06490896669757551
0.03437116117280712
0.08607475950181347
0.0853551794175758
0.09044621005275386
0.09978932585455869
0.11189234731511599
0.12864938397490697
0.12077201603738932
0.0905573820775978
0.12498128593772301
0.060708098053582515
0.08939871971273183
0.10645775886705007
0.09640968201185006
0.15317296192210064
0.13749497657315005
0.11990260679846525
0.11382385046849897
0.15800141142935495
0.18280778443470136
0.11316208441763466
0.18715239198940717
0.15788669452762746
0.12888974577951975
0.08638121054108655
0.27611864357259813
0.3027318645902944
0.12392049476933835
0.040415831636948715
0.02666478732738904
0.14334861930206216
0.1747631601494285
0.19677123939609134
0.1366610461664905
0.13867589667716548
0.03299373980328556
0.01900755976552984
0.12649572497506453
0.1284641555215789
0.10144782702994887
0.1002983170344689
0.07911449576299216
0.04822106585262706
0.06258021649288041
0.12297610679131128
0.11975383747150099
0.1111351914043265
0.0443592147840873
0.10346565571190097
0.08045143603168818
0.06248674071060347
0.10636019195949324
0.10562370965287766
0.1027615679019042
0.06517648233523392
0.09211065185264943
0.07851741905141738
0.09679438310864076
0.09732117007032391
0.09571697624939386
0.0801874932768004
0.08840023434234587
0.0929596355040129
0.09200422548349223
0.09104716333016478
0.08739167174327078
0.089288824352763
0.08856810980734602
0.08762652435001274
0.08777264521505207
0.08715373310154517
0.08560704517806972
0.08498312905735707
0.08434571504135263
0.0820220992570078
0.08597457854632735
0.07441001128158402
0.07738480113630145
0.0763569757605879
0.07480524910996052
0.0736123342651064
0.07707586705675033
0.0704420303762862
0.06841135830218271
0.0642467513295577
0.06557918956187321
0.06972497413061214
0.05665873496409817
0.06037956352788985
0.06479195316771443
0.06980529769673532
0.07045122308763946
0.04673487078028781
0.07261530767264952
0.06765756041624306
0.051279458800478815
0.056519036780625746
0.06342099248595322
0.08854245476128625
0.08462581122048005
0.07982340368392758
0.07675460431950913
0.07460668802864137
0.09513631576545313
0.11268715744630996
0.04933344018394462
0.056362412643288666
0.06429105422811061
0.09682891172137509
0.08747621780349812
0.08525152110341172
0.08186480130179961
0.08219460660744361
0.08495067506335435
0.0847958440811392
0.11608150230371447
0.1402570244025892
0.1117119133411048
0.1286095003510742
0.13942023409613516
0.11069131819653542
0.11069831631650641
0.161158930664516
0.14783003660263366
0.16968064727449045
0.1355264639630905
0.18163484240886787
0.061760738641107225
0.09550401995573875
0.05981073235300045
0.06865020888142664
0.06446980349344446
0.06702349851717665
0.06889523006369788
0.07525311789278782
0.07177686337303417
0.07411371137180646
0.05093569644766035
0.09409827634034407
0.08734601007385119
0.08553539415748047
0.08492754184090044
0.08719495735114681
0.10542850429744773
0.10161383145451575
0.10613679085127038
0.08435311104089853
0.08351966852020964
0.07502992539110277
0.08307852674926507
0.25106554680734217
0.2802265891367481
0.05587365459828622
0.06283071773367772
0.07269644682702993
0.09164377222789714
0.0867581304141054
0.09784700711701938
0.07921654151761266
0.0816352203604505
0.08223704888449081
0.08393843785353679
0.0719533744759016
0.09031729623327507
0.08543582414540112
0.08123666597726208
0.02208238845973733
0.0338368821308303
0.018625319943316964
0.01678137930595903
0.009687386097881433
0.026803156888235036
0.029571109812872625
0.032939006013262974
0.03498881954208128
0.02188795611921053
0.0047101362809797
0.014264579655089508
0.04281861676617923
0.05209657211134969
0.029395666908027487
0.036898611576319476
0.02373521313926211
0.01615527527279165
0.06021529411702098
0.14302626720582431
0.08884981718337485
0.07303503209251362
0.046259685208760774
0.03537647596400774
0.027529951587804663
0.06759838969985928
0.06648130718395799
0.058765770619078984
0.04793741254512701
0.040004555374825154
0.060324882545961515
0.06079338117357896
0.05602299264416277
0.050614342596816526
0.05820269143340603
0.06072300047565266
0.05585538832036485
0.05738347272811848
0.051803482597909484
0.056578006862299544
0.055216846315589624
0.054927100052158374
0.05571435764572931
0.057515368900022554
0.049824200623164484
0.05328202039202704
0.13836476619112853
0.23406338634619236
0.11008589308257555
0.06862132747400235
0.05248667912613869
0.05528316581008402
0.051378873973932114
0.11285626746840285
0.1051190664401651
0.10513345360960093
0.07431914948711597
0.08455244079985154
0.03222861826511006
0.08415106480076913
0.04377390414896193
0.06680809668760009
0.0510596616254023
0.054326202449631454
0.0475200915905886
0.07184348139541648
0.09770111552763004
0.08394172291156772
0.08175038320437923
0.05526987239740725
0.05658861129254389
0.0576326043302877
0.05692810982822052
0.06029037481601565
0.06072341970549748
0.05622213474197955
0.05829113874410343
0.058042826023846396
0.050047462982857394
0.05401655615027071
0.05002948376980642
0.05435069381228517
0.052924824043327524
0.05534037611654977
0.05260970174831864
0.05111713403899529
0.05163521072232064
0.04621631787932238
0.06874822868109196
0.07830009582292842
0.0888405701719465
0.05738820273942868
0.05487785851977369
0.06120760353696161
0.057430451498711385
0.04989370005799847
0.04555302835981015
0.04624030824647057
0.0475689153496703
0.06602230656969948
0.055858813989447455
0.055490373455184365
0.14024272212715486
0.09899977631349534
0.08447082383018212
0.06664460228307437
0.0627052746493421
0.06157823987923764
0.06343095870344474
0.07143159189264935
2.133927202530318
2.0117492114659092
2.1440430805931414
2.1118596527148807
2.060221149003044
2.034377632760836
1.970977535577483
1.9501155251751492
1.6586606478586265
1.3775017239463
1.0612849840075829
1.5425324586203069
1.656381382443761
1.7090215412528906
1.5867689950778217
1.9366542299631415
0.8752632786425094
0.9348627809569722
1.0570040961889107
1.4118209858302593
0.939317565286658
0.810690952611504
0.8046289686116627
1.7266259964950617
1.8427195096431443
2.0737950466559902
2.1229145907184095
1.9757033537103847
1.897839739197449
1.25713744454851
1.1539207690116402
0.9781441588143203
0.8966462280996664
0.8171627364589762
0.7981596764010256
0.7588477314538064
2.154097676401445
2.1185697453941152
1.8959663741491715
1.7245661725466743
0.8223535983180509
0.7177020456596168
0.7716325278510414
0.7948503950675407
0.8048559530984253
0.8267194424113323
1.854302673030215
1.5614748322561944
1.4390984561990334
1.3334482415390518
1.0373687732268533
1.4471498912490866
1.0004865275516472
2.133718482776704
2.0466213690510595
2.096360105533817
2.056082380261153
2.036455559344074
2.011972314240488
1.9596836422718467
1.8673475278450224
1.823668060405046
1.8302711207673594
1.7468422208368661
1.4841793531615846
1.297028920178021
1.5694366634784467
1.4301847607502154
1.165361815835675
1.1199704571195523
0.9329802762040308
0.9651193204299764
0.9909951704783545
0.9291812844769849
1.013224293390979
1.9866279455081826
1.6808584948516667
1.849087586037909
1.8815321775092333
1.000995049015056
0.878900752423302
0.8664290854120765
0.8243160120261507
1.0179023949643746
1.1241681497846814
1.895932188385424
1.9556705990051766
0.7513317237643719
0.7404296518254112
0.6999972743187591
0.6812869830171898
0.6932755683589323
0.7286428022045571
0.7552347255201749
1.7030169924573944
1.55182887334595
2.054312875576727
2.084811089068577
1.3937531474278995
1.2525948709597952
0.8308361713545046
0.8157811084741264
0.9287544647008449
0.9392454159919943
1.0487469306475254
1.0754138551677248
0.7249368166690916
0.6893727325638245
0.6257912086858305
0.47747185853854
1.9818654882765345
2.0826190839419407
1.8184498237483915
0.5133406511929487
0.6103677569049227
0.521726275637076
0.4680409966773928
0.4851053388232079
1.608090322266878
1.4904316919350746
2.1289936368749274
2.0818574773053746
1.940804928081209
2.145337062437913
0.4197934743335891
0.45148048944232616
0.38236260569896224
0.4226561450535357
1.3397542245687415
1.1020005337642262
0.3363082400380156
0.6192290365078169
0.4407307042689887
1.8184220790694012
1.710027892677231
0.27593303272235764
0.9525825346459855
1.390927941816485
1.312305949093603
0.943848242923556
1.0480273338235089
0.5730344541343682
0.6735340354904102
0.603360249915988
0.7563616717333951
0.5848312194569124
0.5426531569142896
0.1851654755374369
0.026042071039290286
0.24343512854101182
0.5691891489210631
0.7034641740315114
0.7242889692975185
0.9522066705302725
0.29090425351117205
0.33305090299946105
1.135140573487772
1.4918224870854035
0.2788445857292737
0.21324701370002308
1.7530073652558114
1.7948770182231384
0.1568898540046501
0.01596450284897362
1.8807951921199715
1.9531852066757691
2.0054114085722805
2.114737482988947
2.1675366386295662
2.1346324409893174
1.8981352600523742
1.7793813315400608
1.4828583402897497
1.3814313553154491
1.1679389607629067
1.1010596613111912
0.8003564391135884
0.9771258275405335
0.712153936860592
0.7460032049819959
0.6723389623465937
0.740388896201567
0.7061773143270768
0.8934336611502118
0.949105613054002
1.2200730610978128
1.675124350578762
1.6452371695702703
1.8873805525454612
1.9367997289529464
2.0942401326656133
2.144638744026821
2.201726695837501
2.1625253833673095
1.9561335146709953
1.8402254183681397
1.5312467871981752
1.4134436286282366
1.1798554160751573
1.0946300551774975
0.9522289913005438
0.7932563744278079
0.7511722814447603
0.7193201174210379
0.9430249358876251
0.8175066385272529
0.9825770309385243
0.6818234511209121
0.7751208446086193
1.0558508404174567
1.2352859131343812
1.2834910956828505
1.63711670870836
0.9542612924265464
0.7225053629087228
1.0594972082212653
1.385066436973059
2.0679555585541562
1.6772660401110493
1.695414281005762
1.7461900153511358
2.163392015167652
2.1590864057566836
2.0664917670274234
1.9760274755778735
1.8965810274383104
2.000931463085147
1.0991589566358226
1.0336588629340326
0.8100039185575997
2.0983684479214233
1.7706336490407346
1.5574744979915147
2.1878386072647342
2.088954608710957
2.014180016353382
0.7915306866848146
0.5099922987208598
0.6799129246665846
0.4289151751045089
0.5758812956442185
1.4155205206515433
1.9803720920050876
1.3003835101235632
0.6488705081462456
1.6852350100983373
1.2568185058101402
0.09829581664648813
0.40220445498999363
0.48910012676309683
0.5896374608417587
1.1536037966896762
0.8425667444833991
0.6759494151830397
2.2014136515268627
2.052089675916296
1.9398900735727949
1.0316634915984917
1.1019970004134843
0.8126733845880381
0.6981009222927427
0.5540745285524936
0.5784622697514812
0.5237296783400333
1.1789958358750776
0.9921787076375641
2.0675249301756202
1.6536348165203367
1.4515407860141873
1.474918292253398
0.31959452147589934
0.45782152809941623
0.8527069237847879
0.5323734201276155
0.6639680620674595
0.776616320782631
0.5394215446544488
0.9229668182844861
0.5754673657357355
0.8763586618141412
0.72643142136723
0.6341672612984931
0.5227875644932736
0.41433913756687213
0.4633555384209292
0.9324060011103384
0.8264512377739813
1.168723862918902
0.9095902591730743
2.053787999229847
1.9466187843790106
2.089685822328954
1.725908516457413
1.6217865303289403
1.2097404572087491
2.0347361741417336
1.6066495833636925
1.6131778749939503
1.4886510234413874
1.3446508748078752
1.2483618668170091
1.22063775680404
0.8417757931842224
0.4487599069217874
0.52726803351568
0.8221238833632477
0.6186790133778515
0.7125559998055423
0.5901536896605774
0.19842027243592383
0.6187748967440775
0.7103642516489405
0.5320160007594679
0.5436070039909868
0.4411892310087222
0.3280956027982123
0.7731292843940217
0.6825500252777966
0.6195374821551227
0.6847287312728387
0.9372347423804797
0.5307914011451278
0.6606677839269869
2.1621020622097045
2.080360138933513
2.0345758375217655
1.843796301135093
1.8276716699760758
1.103960176652618
0.9085414697376789
0.6084431212473365
1.4491159718214337
1.2804587573272976
1.421133793970851
1.1813641712107834
1.0886916947574685
1.0188514565249245
0.789289378562238
0.8952754537851931
0.6971971211347566
0.6113004830730117
0.5319049909978939
0.5801615002367251
0.7661195172425627
0.6670578532439791
0.6174240349002751
0.20203402810333423
0.5895957594181961
0.5181213828650326
0.4643975084639349
0.3582880676306512
0.6513057705954998
0.5860486239072115
0.19535036368006964
0.5223547127504666
1.865930864323512
0.44784496890220127
0.6826203241354679
0.5064311074236922
0.3704027105137919
0.7692302893816497
1.1679944569669944
0.8567456530675198
0.9832917683198897
1.932813605505575
1.1340404274908045
1.0210595489260668
0.919778399129841
0.8764818273667283
0.7748253076230361
0.6771265452719011
0.6186869525024298
0.5862918261364731
0.6159584192888379
0.7173946688414725
0.6535133125334938
0.33844302078940897
0.5239386985125839
0.4742197818942761
0.40959727633923415
0.5627756377741217
0.5198819697290723
0.4966903601165052
0.5865544265450892
0.2294972611838391
0.08123067612518337
0.6163458378749054
0.5370195339147076
0.433477521631997
0.3305051202933857
0.6184835233795566
0.6804237741054883
0.7013949013181869
0.8836884537168496
0.7726914350817707
1.5828806778128788
0.961696038603939
0.8734316817009097
0.7819941635439703
0.6960103411618249
0.6403626774568821
0.6170125997843816
0.6286965020328317
0.677982083577902
0.6392186663844702
0.4112943059108618
0.4807944299810074
0.4460588615537064
0.5056065277612518
0.4802674975773664
0.5990393887440466
0.6395452031094465
0.2853189707071993
0.22106135775757027
0.2109114725461448
0.497752237167771
0.376580872286747
0.33057019412360167
0.5584592072976828
0.6052309442131
0.6827476091291059
1.317748539958347
0.8322166566328254
0.7635848489179561
0.6876161598627948
0.6251062156979562
0.641178488692842
0.6246765952713442
0.4443146336324466
0.4588470075585804
0.4725930004217814
0.4602733532861627
0.6427458531249745
0.6571361851755293
0.2907266621332651
0.27160406379149277
0.2753408406476685
0.40719632565304875
0.3360020823568662
0.46764417505201955
0.5250842168065022
0.7413726028530124
0.840743517084074
0.9823593133444158
0.7382398364131757
0.6992857723845011
0.6717880044557865
0.6138461864190079
0.6034592532435432
0.605748560708899
0.45180311409393764
0.45017371973311016
0.452395131348814
0.447372473090187
0.6532563709375115
0.6545034983351103
0.3143464142680911
0.30720181641112737
0.30471911572703664
0.36294160548231735
0.4068756655797321
0.5574054641064805
0.5567072258147935
0.5588101536660902
0.5153958769534149
0.5636584910009487
0.5551417938163868
0.6648347452157389
0.6059858149269857
0.6997141391649749
0.7152024200808001
0.6794583207743021
0.6643281034580931
0.5729362275018638
0.5633248241028476
0.5855338358827121
0.5586099380275489
0.57151457126049
0.5861735226593641
0.6945992455336464
0.6847848672339003
0.6008522005019318
0.6495052107199618
0.6096552570064709
0.6409474419298172
0.6020089065840164
0.6091170925284021
0.5905937055491793
0.5868644148564257
0.6069072813505395
0.44490184770709273
0.4381896624405673
0.4358384393570769
0.6432758917020004
0.6409263340056683
0.33986166844148863
0.3184256702451602
0.31990018902460104
0.33827042513847544
0.5602808951218227
0.5774366711073072
0.5513255314391168
0.6093514379474804
0.6401076012449995
0.3241024398882655
0.3285607827531926
0.6399414146497006
0.6229382407275036
0.540339098352181
0.5199533191960176
0.5465303518485624
2.107133039821559
1.8244329337383438
0.5511431337019801
0.572282751606415
0.5743510272699545
0.5442933466426623
0.5789351686977094
0.5438856597005984
0.5569731537511782
0.587880773446266
0.5146501245187017
0.566093563193397
0.5616722358097972
0.5602079142919657
0.5584314206699853
0.5617449148616338
0.43023962823569484
0.4215512060205018
0.4181568568876161
0.6230377018784327
0.6065681888377161
0.3174200553603812
0.3026479618729338
0.5576319001079556
0.5370652552693337
0.5507252738338432
0.3255696958803818
0.34997116948846374
0.31594771602735483
0.5986954232830314
0.5810134843348974
0.5030461478912076
0.4748017064587686
0.5050649079303974
2.152400975041965
1.9085779170584263
1.7085330609778069
1.8202594167271549
0.4599178323144244
0.41647071371878175
1.4135886396378143
0.520572419999248
0.512949667464297
0.4525368346361214
0.519444836042439
0.5119222423027601
0.520397075290182
0.410384774996196
0.4026549185633453
0.39755761470069845
0.6286028969821709
0.31394224063901116
0.4972477647365789
0.32674729855373635
0.33687676133404915
0.2893689903337091
0.31204512606942064
0.5659524789121886
0.5248876637223627
0.3858537400009777
0.43046755747059007
0.464289031300141
0.36200474633627056
0.41050557702570756
0.37965344860281813
0.34623752101038274
0.31880276074778413
0.27132794789570985
0.25815503869099277
0.24272472856503405
0.30404251837482554
0.28909190746951535
1.7123549036972079
1.4086582747267193
1.4136557780155403
0.3911914737451665
0.3368961347154031
0.40108030689661506
0.06768165838841532
0.47710191337927704
0.4716441549516297
0.42900115886129386
0.47304867847294
0.4670911602584166
0.4068608043702412
0.5575760565134505
0.3278135209369642
0.3554532847984831
0.3045229833401513
0.30875780167146033
0.5347199037199318
0.5159153836386275
0.42668986657095315
0.3569835675194762
0.31051841819497555
0.1687460754757923
0.2222662715683834
0.4061808310281084
0.3339452774575587
0.2775166345811416
0.32725230492485813
0.3012953438511364
1.4318254776256591
1.1478907598225383
1.2273544658942552
0.9446063185155116
0.9538320562321285
0.8877723307050349
0.3285886914222173
0.22479947187228508
0.3495430492922545
0.5500214396591976
0.32247428258801375
0.3649478534763942
0.282166765786738
0.4723595631697616
0.42565781693435445
0.3273593958344248
0.3026475390624399
0.28392658230517187
0.3244574392994054
0.3466443347090098
0.3869608756381381
0.33487061261806006
1.1044529538789833
1.0180969734192047
0.844054227218661
0.8023668008052625
0.8046379178916753
0.7770981286309495
0.7520117119005921
0.514275548405884
0.5039682031264248
0.45863252968502494
0.45396955520119703
0.43567663504637233
0.46345182441780813
0.5118166741229241
0.34485175494191994
0.511531478972207
0.44552295069824355
0.33065110590933244
0.38470765741096186
0.2853358440186043
0.37355167602189476
0.4118674834943986
0.29435967538174196
0.23919640098696857
0.3197212505415683
0.4338974220662523
0.35591457283525385
0.32264432769730333
0.5628364653736465
0.8426948980343486
0.7257932512561038
1.4070490336640311
0.42700850164524845
0.3433446336389519
0.7920214899681849
0.5975485256392615
0.8574704379662444
0.7577269238830753
0.7218791964897351
0.7233079075808024
0.6921879248354479
0.6142983329972015
0.6648510632102537
0.6088186592731142
0.6757958767049034
0.4263664593194183
0.48575594370995495
0.5197709696297831
1.5178475504277027
1.726008919131602
0.4119722009978685
0.35162970941193983
0.3894484431468274
0.40770547952042324
0.440598232399548
0.3146079208406605
0.4947467233391395
0.42033151187496853
0.2943426973726533
0.3324327195786104
0.3934177642478433
0.25294967359216064
0.18653854711101617
0.20814315164207536
0.38910860711931544
0.292748175805724
0.15605033272098096
0.41438292941673754
0.2593219557687953
0.17480327254003566
0.5732916936224154
0.6193998971759951
0.5830501080978913
0.5628920788940227
0.5805825791355836
0.6221016896382983
0.6016411540416918
0.3204529234366417
0.5134004491794434
0.4730483690878854
1.8141181591307758
0.3188520371347861
0.35677319722363926
0.4094580557379442
0.41512442364207164
0.3116946289730782
0.4993262135731985
0.32085601506389383
0.3964448078174058
0.44144127001902217
0.21018862530025775
0.25632012953805167
0.23180468914477714
0.2671079627095071
0.3387607973573744
0.15285002282194537
0.20414960937277069
0.1011637742595134
0.5203233395560977
0.46567221552006777
0.5429887707738833
0.531806567018232
0.2679540839285664
0.49094080658468875
1.9378445659464116
0.32647285431143375
0.5207406621285846
0.3446631173544126
0.4363882465871131
0.26523180385249684
0.23192397940363346
0.27303258557408006
0.30993009898989277
0.17105260049834622
0.23024936692758713
0.48460099886554325
0.4304345942982735
0.5106051619940998
1.0372655492125533
1.0528125456992614
1.457789607851397
1.2614778141371525
1.1042428136532791
2.0542501755511156
2.1157602481017763
2.1980644884818115
1.965279363456269
2.1883657734312743
1.8518722346507668
1.480724045133119
1.7801759830676989
0.35253459022990125
0.5724017688598324
0.5001644717026813
0.40745861061844285
0.30331456713182564
0.2273965622790406
0.17025401298885692
0.2911214190960062
0.33818880602441065
0.22027011389228338
0.9444376411878648
0.9663246759536938
0.8777286381348044
0.8997847993018732
1.0110539053061138
1.0590611711898645
1.1426022922421262
1.3209890395948511
1.5257144229537063
0.5640265627472772
0.650029343915833
0.6332749048167101
0.6628174632992102
0.6733687701217337
0.7568750883980484
0.39840223011735504
0.500657031362445
0.38114105471837695
0.3049933192986374
0.28280270498079296
0.25854154629237674
0.31821825734978815
0.3428960544100231
0.9051937694549176
0.8483558428915634
0.8271111380323602
0.8553127918581745
0.7378466379713088
0.7636934867189872
0.701866094665731
0.9808303432705195
1.0590081841975163
1.2135208404155768
0.6084674313627186
0.624453228574543
0.4715369406414396
0.4397795453266661
0.4023328861863114
0.3188352878876208
0.35010321387587245
0.4125971091973778
0.8123497528715926
0.8058533298997115
0.7907165450189125
0.7799695887832906
0.8176122985091246
0.8165578230538285
0.7590423179623697
0.7294435335406959
0.9261816748378494
0.6891500296482768
0.4874558769274177
0.33184425769102904
0.543161255639612
1.041752254320936
0.5111240568231599
0.49649849646961597
0.6106546983596386
0.43750345404195584
0.38041591460960844
0.4241406845707673
0.43867534890122517
0.6420809378317949
0.7441029844345889
0.7837793422310325
0.7840158394416319
0.7669798832738287
0.3138936837929609
0.4973396375312698
0.08991110460470199
0.28168258933814444
0.4608694359630521
0.7588584836251783
0.6112414029462324
0.6209908123638787
0.6358992052893093
0.5796162123173443
0.5441230328193124
0.45331693686863234
0.4688591732886725
0.43052760172081644
0.6469014176030209
0.7415766570148818
0.7760081945375429
0.2642135598569455
0.42688681455328553
0.4943310014459463
0.5669260698734592
0.6490308655941474
0.6614903306068728
0.6681726922276028
0.6426556493700545
0.609884672649144
0.4899309290642604
0.5035897846180181
0.4745445432943563
0.6846052529065213
0.6464361043681477
0.9860810628505862
0.6818746192871769
0.6662596385087561