<?xml version="1.0" encoding="UTF-8"?>
<VTKFile type="UnstructuredGrid" version="0.1" byte_order="LittleEndian">
<UnstructuredGrid>
<Piece NumberOfPoints="5313" NumberOfCells="8293">
<PointData>
<DataArray type="Float64" Name="Magnetic_flux_density_norm_@_t" Format="ascii">
2.673469796464982E-4
2.607491121644947E-4
1.626077182723472E-4
2.7068606357153895E-4
1.6686398754917664E-4
1.896010108542419E-4
2.696198218115542E-4
1.7412677508241335E-4
2.6077900896005844E-4
0.04833459913809209
0.052393337139311436
0.029832027311241488
0.0531734007729861
0.06808641292647004
0.04095853883109116
0.035820457899912644
0.04252674745200857
0.022677812050554528
0.11457175464013318
0.17817068975726355
0.13493151515708574
0.10849992168669988
0.10777037410665732
0.11974756757713181
0.101145569876086
0.09949308822313682
0.10943580277751558
0.11444996353246882
0.11464831940396186
0.11187855503124597
0.08531043957694438
0.10860634172694007
0.1090026012050922
0.09595072843304778
0.09379180753902246
0.10043164292749397
0.09060376131312885
0.08974850735079726
0.08704269617365723
0.08779995699291027
0.08649506583452257
0.08772540005888006
0.11930753027532069
0.13993330234057597
0.08687531367188571
0.08943329541678531
0.08946205101450687
0.09312596868852284
0.0932243071243544
0.1424931792399804
0.234745184616875
0.10010081408647084
1.3007207916852323E-4
8.036326006616208E-5
3.513120438980271E-5
1.1565340789093327E-4
7.238276607072936E-7
3.708074862108454E-5
1.3109427321121434E-4
0.19675717027158118
0.3063274284176894
0.28124912202258434
0.18006187006407443
0.03871157473125215
0.025912067996256793
0.1454337786904446
0.16796081458768852
0.18408496171180547
0.15625474902891817
0.14654657000051852
0.039660778530374766
0.11702376058173826
0.10629714638085629
0.07293253750630146
0.05507659625496902
0.031038314987532647
0.13330171315216052
0.12431291524094708
0.12192567204181125
0.1252136958885863
0.049480443705962475
0.08482749693753204
0.06582418746534927
0.11184516054156313
0.051536323407735306
0.12057892098163914
0.10945847087792733
0.10069942350381351
0.0650504314025276
0.07938110822171478
0.10037008342288245
0.06781301743629455
0.10708603064135587
0.09974708048576707
0.0882082033856254
0.07752518942460698
0.0923476670161239
0.07915835628402244
0.09757557152561479
0.09295731829397236
0.08550400065753516
0.08974053308695347
0.08484661343848578
0.09160239965035753
0.08919024972875306
0.08700605393305608
0.08602773787185847
0.08801674778452849
0.08712065779341306
0.08556639520906155
0.08465705486728113
0.08553118416592147
0.08358113175954761
0.08210414552979634
0.08318061774161749
0.08097071579544729
0.07880364535570318
0.08052002297539927
0.07799093298318999
0.07490387433490445
0.07573649480204737
0.07733237577170622
0.07363139332542239
0.07083344620557182
0.06619250075304624
0.06978904152524028
0.0673605060919782
0.05639995808319749
0.04888781481832834
0.04398841285200746
0.054147963581665653
0.042699313116404645
0.03844299028136413
0.03560008505822073
0.02815678961767563
0.02603422894959853
0.029592233408516893
0.025257143479375216
0.019870747377329953
0.04912033628317941
0.018937005624547545
0.01588781199698339
0.01435565793209137
0.04168407928877839
0.03463238985740595
0.022840502768098254
0.029780822294131346
0.024038172804707506
0.019434505415220838
0.015636099597066796
0.038443536489016814
0.03022700749341341
0.02940327702454153
0.025611831143441278
0.022335756177145654
0.019532200618529928
0.03747926349945976
0.031400324843881014
0.0289113756721584
0.026182846364026083
0.02544744106740185
0.03801302380717557
0.03246481416730267
0.028673452249582572
0.027450672131230276
0.04074370286027025
0.03459076044756324
0.0374713450149415
0.04166016154283225
0.04767949188380142
0.04739064917079685
0.05231869627472166
0.042658058533346956
0.05444346501258077
0.06513459807211508
0.06562792574455295
0.06687972972320248
0.06367309638594713
0.06806936455860185
0.07073596773514158
0.07369008355742136
0.0742509100430128
0.07565035071698585
0.07724982060240466
0.0719556460541027
0.0756471955189765
0.07791775960770188
0.07969960546759584
0.08224605990187103
0.0826484017243953
0.08157099537946112
0.07876392732556743
0.08067665144060097
0.08261652449500632
0.08329460732944957
0.0823666052494801
0.08132946885420195
0.08376345025574024
0.0826289440270503
0.08482994133704501
0.08471623509046473
0.07998312859840578
0.07963349642938662
0.0871175594968281
0.0844729582953393
0.08816774174872162
0.07471785980861931
0.08168078146049314
0.07355609479461829
0.09281472877436463
0.0885998535605765
0.09536689864160114
0.08620885236988625
0.06609501283123904
0.07573974303574099
0.06484849864444475
0.1014470052561655
0.1049694627207818
0.09819719533003667
0.11260949594287631
0.08065299932836285
0.09318002910352244
0.05287341794144857
0.06654950380748166
0.05482406693404581
0.11069862305030252
0.1163414369000375
0.13608384006532545
0.07168571943675006
0.11205284107798616
0.09136538720172623
0.036280855312223546
0.05450096950370111
0.0983688804672085
0.13044802744060546
0.06080243996683001
0.15611911631842
0.17371829291552138
0.15204142965806627
0.08057191457847111
0.11391494496937223
0.03993039176805975
0.12476546031558851
0.06124263166628762
0.2811480056527755
0.2466622630669142
0.16208397046411513
0.09896364917120849
0.1438337401790725
0.20882162678144744
0.2240790792372187
0.043205581911741085
0.028762795585171714
0.03932641915376225
0.12690544058539913
0.12734957024371307
0.06869722504704229
0.08475320071513222
0.09560127143820725
0.12194888355274273
0.14806146366487086
0.12302573374095009
0.026582726775412152
0.05399060018565175
0.04500064401796579
0.09886723763266596
0.07468721581713485
0.10552234983105453
0.11044997782087633
0.10586782700263143
0.04936736451645715
0.09279351496488578
0.06204761193316339
0.08075611567071461
0.09525568283869384
0.10358095578551237
0.09591146294696495
0.06593267633975346
0.08601221784702799
0.07605557675524563
0.0892462503565798
0.09423340335657691
0.0899266509824732
0.07743911479703927
0.08330899306675428
0.08680463228309312
0.08858574004138242
0.08638375193185384
0.08281270066152464
0.08457685450112351
0.08421586543091601
0.08515802464813621
0.08349614894335539
0.08249503880432837
0.08262919852342976
0.0817431659835367
0.08076757520278867
0.08006560177941259
0.07872343864918063
0.0788008211743049
0.07682448649410666
0.07697815512899016
0.07523174635153691
0.07490355317559799
0.07595100592662836
0.0710740276564063
0.06250242633442148
0.06451023966154322
0.06268962977786002
0.06076309799896465
0.06291304116353119
0.05422441659767815
0.04971396828602837
0.05000708127962322
0.05427942056813545
0.04650766777307903
0.04048948845275904
0.04216979554772598
0.05021693262228889
0.034418631283921204
0.04128611721407809
0.04887383414709676
0.03228980721201203
0.04128700594355906
0.050011240191516676
0.0342863084873504
0.04203046268378667
0.04630133195464031
0.05388455069610882
0.04023293821272031
0.04944872064972087
0.05391835272406402
0.06231390064319532
0.06244014823349605
0.06365163835370159
0.04929237287014129
0.06029606974346384
0.06857286355475727
0.07542236308425972
0.07470445709594208
0.07642399352347189
0.061840038239099115
0.07628933756355478
0.0782954983370974
0.0796694780059052
0.07178880812538666
0.05880531237906452
0.07329919822793879
0.06333157883005193
0.0743467381383512
0.07837869648038173
0.08049140508522176
0.08209166365843669
0.07934713985887774
0.08032889502032388
0.08316552613190925
0.08334611721552343
0.08167088126508049
0.07447655964400272
0.08878789939484096
0.06670792485292493
0.05532043445612287
0.05658003576727579
0.08414268194360319
0.08355982035488263
0.0835102403143631
0.08271406983821332
0.08160044447614477
0.0853427384279407
0.08558411378762093
0.09128883420790275
0.10493223888188444
0.07917287078103767
0.09793232541047671
0.06259190761736094
0.03319732136141032
0.08526900668822236
0.08458001205454835
0.08975245597355105
0.09966929407610785
0.1134260593124386
0.12981687368054146
0.11921020911322441
0.08718075410879002
0.12125860314183558
0.0578346814807607
0.08871509690815309
0.10749598283319682
0.09615679170454072
0.1554655076408692
0.1416078968458278
0.1240120963937364
0.11800887070972281
0.15672743909880898
0.18471516140624492
0.10683557133720427
0.17958629784012045
0.16366050319440073
0.1358068050491455
0.09281009425707613
0.26858440626000507
0.3164641437627295
0.13962512034047667
0.02509387855916754
0.01632061454138235
0.18764767870911783
0.2926929188935495
0.25949543079920484
0.1760964372568239
0.18309547563172038
0.021843560221290356
0.012489151557376427
0.15150626599636377
0.1606040327317215
0.1010699932322005
0.09006007020198209
0.06246248336652669
0.03401149920395687
0.046487222360027676
0.14695839716615994
0.14454416080060403
0.13183950406389275
0.03212439018055238
0.10927834032413088
0.07149712865823685
0.0498823598481743
0.1174789613777855
0.11857782953664371
0.11435756033486627
0.05409448456915692
0.09225477250705418
0.07159993689385431
0.10203412571599087
0.10429856292249157
0.10204075070923439
0.07482036423280268
0.08828384423142681
0.09678471090954946
0.09619081590484978
0.09514173511125013
0.08739374443767678
0.09175065752029017
0.0918221690905484
0.09086259511788469
0.0901135715859553
0.08996073399031647
0.08852553532714287
0.08792594362097296
0.08712403046142202
0.08481145770676395
0.08891435347405709
0.07694502396859793
0.08003434432566495
0.07897743166454663
0.07737671907381759
0.07615149003967013
0.0797434684372532
0.07288727445437515
0.07079645302244003
0.06647745199633386
0.06787660588927334
0.07217576063865223
0.0586573692281862
0.0625195745308157
0.06710489831886511
0.0760440178292894
0.07645726097263852
0.052970487725151956
0.07851004276593941
0.07526340188156479
0.053114243158363834
0.05855324388829838
0.06572174944402766
0.09334875316101053
0.08957394599789034
0.08502939656377068
0.0819734538490255
0.07952222648880942
0.09927207913822167
0.11577555227121895
0.05112286065007582
0.058425896098275844
0.06666514702213816
0.10068202105027614
0.09201422760821061
0.0897233162226419
0.08642688486829121
0.08665885639857233
0.0890496669765749
0.08883087055047707
0.1133236258337377
0.138119881495573
0.11048135101134766
0.1284576665533891
0.13998747558582195
0.11287691336197817
0.11130010327522662
0.15951231119527587
0.14429910077267288
0.16613593396017964
0.137228606519482
0.1790189995698296
0.060200199697937364
0.09162217557774753
0.06204223766561864
0.07123997814895393
0.06691681346357063
0.06958662383009438
0.07155383472011369
0.07817267276189716
0.07458611888351835
0.07704999691783902
0.05281124062416349
0.09772626325663594
0.09136924782257877
0.08931002657474713
0.08866430132327709
0.09098102469901022
0.10445879585525246
0.10401904770174268
0.10733057956311791
0.08793018108530508
0.08704217755371031
0.07802527667618273
0.08643666610881916
0.248684357970114
0.2690811526761953
0.057969674145090556
0.06525270197657194
0.07556335572726773
0.09506036371286397
0.09034039738015003
0.10055365207169394
0.08244297146811327
0.08499738147244194
0.08564351785371005
0.0874264610658155
0.07485393127607272
0.09370485106848932
0.0889342074921299
0.08457750681476268
0.029764612322687282
0.04896533869416594
0.027437298550719285
0.022577502465551347
0.013195915597197785
0.034218514221329134
0.038122939238658206
0.03806557841679064
0.03985827044085339
0.027857048047789837
0.006119707302441865
0.018476005274647853
0.04346560836890006
0.046902646183883616
0.03429796193598084
0.03968677723654622
0.028433455183164733
0.020328928612596234
0.054091679449673
0.10471879945340534
0.07298899190890153
0.06255520260899258
0.04549661224923939
0.0379566429116383
0.03152698214451761
0.05805287066321798
0.05799192537699691
0.05332861277644629
0.046289444136414004
0.041049026191399184
0.05337365547637655
0.053478731156384886
0.05083872615911567
0.04768465484296459
0.05176701195115919
0.054005893135355885
0.04996071330376619
0.05108653390737231
0.046845030568496294
0.05038173681177236
0.04935253353748248
0.04896951648640139
0.04962954488687895
0.051236769563467816
0.04441945326940815
0.04747885954129727
0.1251308975198578
0.21592744519340498
0.09981750756548446
0.06181589781972704
0.046759547244536535
0.04924456864147365
0.04578548917271431
0.10222062632747402
0.09252060637053806
0.09361710420176354
0.0653826835338161
0.07477483801503347
0.03088106161720131
0.07689381096400827
0.03836181449687701
0.05892538584157272
0.04547104100600483
0.048368486920308706
0.04233441300243568
0.06358887556162128
0.08803360288048365
0.07472736133643319
0.07480490671992458
0.048980743703585544
0.0501246493669228
0.051084379373123
0.050421004761988894
0.05337751906700927
0.05364906465469025
0.04968779025973937
0.05156945888477213
0.0513527100843641
0.04454081833221662
0.04805664891225523
0.04448374966964686
0.04830548461297284
0.04694521812422969
0.04912257011589649
0.046636860506979454
0.04539860942931617
0.045793771801828635
0.04114931007916877
0.060930012323829906
0.06967691337001353
0.07982001937697403
0.05080777254604698
0.04861397526139799
0.054180744487280885
0.05083911807404834
0.04421911581203832
0.04052630057203233
0.0410943799495952
0.042219771289127524
0.05850412224739825
0.049470166669414166
0.04912803560914828
0.11163372962821246
0.0988545722360367
0.09624977393555187
0.09093981611243492
0.08571530911086449
0.08399318942046798
0.08536313036612714
0.08977457171318581
2.1959887875962707
2.1297841785918408
2.1742253434699115
2.1090809625327527
1.992258252334559
1.9318532093063066
1.722265179466963
1.6738566309479899
1.2349852136469186
1.0271779071580955
0.897370578472581
1.7306953093031983
1.8125692511025069
1.34793623721904
1.1690479201881234
1.6366150620744815
0.6580859360367964
0.7296638101973004
1.1638061250013594
1.5413072437172946
1.0095008054532213
0.8835519891987819
0.8848476835188418
1.8238062593000004
1.9151073770286537
2.075565770728405
2.1211176604449724
1.9982406539278732
1.9454290478044445
1.39997202008533
1.2967651429330906
1.082179104813611
1.0174492280890088
0.9007879768217073
0.8897861039006169
0.8318702651772458
2.1337730245946447
2.083645195759768
1.8407067306512648
1.6519714313117129
0.6692364673851673
0.6077509722539058
0.6648842350233838
0.6714654649501247
0.6997205139001828
0.711068033015512
1.9177018771423402
1.6678838517956471
1.3629530171419242
1.2512679282534351
0.8677692902955128
1.1522335428495316
0.8873457931314593
2.1903418157799157
2.1666180960628827
2.1101421497518267
2.017261333064783
1.9420400577245083
1.8573251632894359
1.7061755686205682
1.5876853998182792
1.886782144418891
1.8747447391456704
1.8420308995874446
1.6032915781537396
1.4239547184752583
1.7658309389564792
1.6625742219918431
1.0853219582642193
1.0167646318729293
0.7807692179293418
0.8197767462643455
0.8594237733524454
0.8163076874972276
0.9210918906786366
1.7678838400017967
1.4036849270826908
1.8778787462784072
1.887734689220694
1.1070989312858033
0.9744937352835743
1.0078689767027338
0.9763499891776436
1.2044430470309317
1.3082393804287225
1.8956041191454625
1.929492096396043
0.8345437350989989
0.8256246729829563
0.7987223286919062
0.767898728690167
0.7930464641969276
0.8545288159998053
0.8762537197037923
1.5901791999798942
1.421823560297805
1.9886521182729975
2.0178058192807593
1.2650325799955235
1.1104280256181387
0.7425460269176817
0.7312214166948912
0.7857269555209542
0.8168882760987305
0.902717166019522
0.9433986200487474
0.682090030541528
0.6750723758821625
0.6222069700253537
0.5184353676586338
1.94685545482768
2.0569498250515474
1.7714020929872927
0.5150868705428547
0.46729945325818306
0.4758029709308917
0.46906591833885664
0.5279405831418967
1.5418281504786238
1.4184228534002514
2.112501700818617
2.065061334795202
1.9064781472838
2.1253924057727778
0.4408510599314724
0.48554457859966177
0.40708298266575627
0.441511575265116
1.2629017338065283
1.0169327944813162
0.3106986022762381
0.5768341561526498
0.43548662500185253
1.816317550376244
1.7137182669672704
0.2973234121109444
0.854180715970885
1.4273490421359967
1.3553520450157794
1.1056896723917784
1.1357119166123457
0.7905947550794332
0.8760172835280938
0.7630231360188909
0.9336876545338079
0.7670062450081198
0.6852572489023947
0.1840135602719837
0.026249558045906743
0.24186738423428175
0.6890858061707988
0.8336426518395599
0.8331177046852755
1.038399383707855
0.28883679537975354
0.330533723559682
1.2432512921571233
1.6060375890120508
0.27661538765035365
0.2113663051840523
1.8293086459711325
1.8578791871224984
0.15557122112334212
0.016203480055035472
1.9204415958737415
1.9787749572309343
2.0216178910896647
2.1204761799860226
2.1607015439398265
2.1259037020839884
1.875114555249261
1.7511767016173974
1.4486529562910928
1.3461601867353348
1.1343096016685645
1.0444603262136412
0.7579711934173735
0.9154840264277496
0.6823673160537996
0.7054762438431914
0.6456686492348452
0.7173580777146437
0.6905318936327777
0.8802971435947148
0.9392080441096454
1.2117382981032672
1.6424698906994857
1.6181222755696976
1.8486396454966585
1.9015695884459898
2.0658909809380677
2.1172830431851044
2.1995373767070174
2.164513958665142
2.013912249390206
1.9335222230784785
1.6665984706928552
1.5779950691501734
1.349925629898746
1.298972853055896
1.1078384682019142
1.071577455225671
0.912069809871308
0.9032727585387409
0.8143428041101706
0.7039395609700569
0.821782673274882
0.805501114422882
0.8919807233732598
0.9976562859120328
1.1557017606484534
1.2109761275024893
1.5645437036349126
1.0411262723373456
0.8572897428673617
1.2153885378186124
1.548940344884118
2.0306247439864866
1.612137653703785
1.7976469840216123
1.8357933885566344
2.146746589406792
2.158016326878516
2.080543221602128
2.007457478011324
1.9440391576966987
2.113244439486018
0.7041563433919457
0.7441608241192097
0.536419242265377
2.207871871405853
1.915305982597649
1.7033338555223394
2.232565532270454
2.070572638850034
1.8794070944470365
0.3264975492106949
0.35666741731055496
0.5334095166243334
0.4072642485251927
0.5103080906093789
1.5361992866356968
2.002320800535019
1.4398987558760596
0.7120756515187365
1.8296554414628052
1.3826593580661728
0.2787438534267218
0.45681742279652165
0.4834581198431994
0.5471994104273442
1.2674210885622261
0.9634149076918689
0.7604940094604247
2.1863047744730784
2.0566327341379966
1.9741480785786543
1.1407824491317342
1.2129668630373522
0.8851339006519823
0.7579585262976579
0.6183856692728936
0.6200238914772677
0.5696481497238288
1.3043659133537304
1.0877760341556149
2.0204229301388508
1.5879053705734534
1.3809722343009867
1.1847559906971754
0.4378276856269321
0.5113737767479452
0.753680597956853
0.5394029521016057
0.6137708068814138
0.6988378912953667
0.5626619683197027
1.0649826370976956
0.6663011426685825
0.9468907711450003
0.7755858325693796
0.6734205177412335
0.5464392353832641
0.46011376032349044
0.4883615533848937
1.0263143756226776
0.8889830150020552
0.8958744317637395
0.6639458587746547
2.153218569827485
2.0923372682309798
2.1111781197129114
1.8211859603775455
1.7212530969886601
1.3230077287262567
2.17937211641521
1.7855290129149908
1.5470407410753382
1.4201348419197188
1.2752590508564332
1.1769328264437304
1.1457274327216298
0.685172513468688
0.5185371485104494
0.5635311675001285
0.7573534652456818
0.61110827787417
0.6768877674610515
0.6025956483862817
0.3146737855327771
0.6472410694451869
0.7525230056042219
0.5486238330850629
0.5569936059771434
0.446741029535358
0.32983062272379865
0.8289817865044143
0.7178716227685017
0.49370639652687204
0.5941061505045049
0.5912669788389723
0.5002464502131879
0.6042279105527383
2.231859932280392
2.088306326809384
1.945014478020509
1.914902155658827
1.8775514597509684
1.227981969780362
1.0299412431546098
0.6957387367447961
1.642579122972057
1.4680962471616825
1.34737601491159
1.1128459408448654
1.0256323068029907
0.9477002396505492
0.701249322903813
0.8172233952292656
0.6496154156357008
0.5888255998886462
0.5722603090290734
0.6009603902972568
0.7330801185690877
0.6583383332216586
0.6252967485559531
0.14586988006048338
0.6082870131333757
0.5237865235410786
0.4629176525732734
0.337689842941665
0.6811784900904279
0.6025148651340796
0.31290569450451877
0.537074757184895
1.8830967366777838
0.5648194955972876
0.7670380468601354
0.5722900106906945
0.42115654564261024
0.8872151767619909
1.3474654959156263
0.9931451834658556
1.1458662538216686
1.9147414182118379
1.071228030146757
0.9643082424008084
0.8699622908157686
0.8196188110695484
0.7262450461149925
0.6482874632522144
0.6124475208693214
0.6070285247996918
0.6249806525541178
0.7024634547371922
0.6516994211084685
0.3022370995502088
0.5289128738697045
0.4696554671436121
0.3915291685071421
0.574842270792664
0.5236244264098642
0.5399023441400866
0.6000087289211293
0.2495024458422724
0.05018108574170207
0.690189176814533
0.6007030010394305
0.4809604426978435
0.36200147376668007
0.6959533763148236
0.7754521979111567
0.8007429427745052
1.0481731045965874
0.8915551841106759
1.466431575283706
0.9148766496174451
0.8336382925991299
0.7501415828748038
0.6750908919960029
0.6381119029314553
0.6251810129923103
0.6321411945773839
0.6701793373066923
0.6374584158879304
0.38894384623878114
0.4768809351422861
0.4340547827124106
0.5069065210755359
0.4771048476395487
0.6184239047593357
0.6435383090466901
0.2975768906601433
0.2161431913629873
0.1935534241358197
0.5507257199653832
0.40727788354887434
0.34751023991018304
0.6222649638440229
0.6804826690062615
0.782103732962939
1.186228277770042
0.7992988562182092
0.7397320004516192
0.6772508201545951
0.6261396048317978
0.6357042397146377
0.6222483484137451
0.43074784913665204
0.4511675800349907
0.4688643658801859
0.45505694409874
0.6525171582810448
0.6567567669228772
0.29569580085053576
0.26811921561911584
0.2669693428033512
0.4377731074547198
0.34982102820507677
0.509362911577454
0.5813134776859
0.6884225260510483
0.759128319065604
0.870200300727148
0.7195858523759942
0.6870799428493606
0.6656015097201096
0.6112868479449453
0.5988051519305035
0.602048817535677
0.44310185415446335
0.44392465370576023
0.4472748064353927
0.4420274219762942
0.6562784191836812
0.6516471460429154
0.3209220238043136
0.30541260831270794
0.30625152157300223
0.3810537773754308
0.4346385290923263
0.5667535397451672
0.5661061738556055
0.5854056868333615
0.5642299026584966
0.5797572244908233
0.5700077288781688
0.6382201745515911
0.5995590760244467
0.6566114832500756
0.6607313991937975
0.6696861889290919
0.6571797487632788
0.5689102851207559
0.5591055899640199
0.5817682028019121
0.5563506220806784
0.565749399582567
0.48939477933475606
0.5326742542962596
0.5351797821709269
0.4968967091577048
0.5198778358169054
0.502780339558662
0.5305452737760189
0.5040945340403508
0.5181320515710667
0.5040118763898623
0.5084802484330999
0.5286071958266316
0.43861876119672133
0.43300704397047873
0.43108043763440795
0.6411503540811657
0.6358201460641671
0.3445327709278427
0.32345315974314015
0.3283157991339371
0.35164199483285974
0.559461889158985
0.5749040353638042
0.5420220065465992
0.5907052259881933
0.6084279958479911
0.33246642290010603
0.33745098765071185
0.633060382233569
0.6166578973468219
0.5364154532647456
0.516127346432599
0.5426420823437003
2.0847709284224094
1.775737052114735
0.5344436233187194
0.549832455543092
0.5397206859619645
0.5150468176170153
0.5330312501916379
0.5036697618754692
0.5056953337974488
0.5286546256398128
0.4588597655794568
0.4834677786616238
0.47982954928972044
0.4968694562047013
0.4821647608230364
0.4899674425115573
0.42537579599219083
0.41744530440171146
0.4144121812642063
0.6175746156153291
0.5995683032079507
0.32604749399918703
0.3113703885074112
0.5450395173109942
0.5204980468597805
0.5324889327283971
0.33669811970223246
0.3642153113141781
0.32734059270771043
0.5914656851962625
0.5732570419655338
0.49938141254633583
0.47134331874487434
0.5014124227317509
2.1338794205338867
1.9006107353002846
1.6537400179185229
1.8248251696343494
0.4392993621017274
0.42219343068104376
1.3390863991908235
0.4962652316171885
0.47728548032881585
0.42366742234486915
0.4715526714413982
0.453096466827603
0.4611075139133464
0.4068244393624297
0.39971394194795745
0.3950504730733202
0.6205641200995055
0.3242236616332507
0.47890724976321813
0.34065964524689246
0.35287164563797563
0.30194676160820677
0.3263604694213776
0.5574624999243918
0.5168136643855686
0.3839304860223658
0.4273252484916056
0.46087986965220284
0.3607527997447017
0.4074444136911298
0.37687287374716966
0.3436638577341605
0.3164575823567191
0.2693215564233663
0.256254034444933
0.2409670230728054
0.30176771390005525
0.28692658725080933
1.7217740431585777
1.4443274493984097
1.4613733314326998
0.39270097863632114
0.35953512417539013
0.39364318864318476
0.06879463512510788
0.44913919167620686
0.43312840058579455
0.39898730409223493
0.42515726199328707
0.4170683299900251
0.4046867379825603
0.5486722314974766
0.34470239964655597
0.37525909908312993
0.32010114129499784
0.3252871117330785
0.5250405991061253
0.506030670840968
0.42346687341286926
0.355942331176929
0.31039955164001
0.16751797710368485
0.22071962425748648
0.40312411480212007
0.33140801953080534
0.2754660477546747
0.3247249668730241
0.29898091643320795
1.4672448684305222
1.2033377599875872
1.2781249919851052
1.000005596322065
1.019678481896191
0.9503349960092516
0.3439843028608136
0.26465012496158896
0.3486972408719204
0.5390962619011875
0.34207087907604666
0.3892578891193232
0.2984939614479289
0.4616716993777793
0.4161732503749686
0.32731411173110103
0.30321446962528364
0.28187026278749305
0.32206800255262014
0.3440520839824788
0.3840395710776544
0.33230418736718903
1.1632750592053909
1.0723438790847757
0.9433663509111365
0.8854447606107951
0.8789178035892956
0.847394091929309
0.8227219544127155
0.6294954966272537
0.590526552133969
0.5027789757968079
0.49567709758609574
0.4769042370588373
0.5092016498830021
0.5635519071944898
0.3450162350819046
0.499185216858028
0.434217699220336
0.3542123729082894
0.41380519220959516
0.3048208748072558
0.36382369512292756
0.4008416131967703
0.2950652240637774
0.24013914891400936
0.3172930042569812
0.430628425931945
0.3532202004796487
0.3201613819930268
0.648892632318422
0.9595844499502986
0.8261477021365794
1.5228188776076885
0.5092315237699889
0.39601162369840964
0.9358180684081067
0.7188612622435685
0.9801107080982158
0.8689799014525968
0.80868906422199
0.8028369283649714
0.7662936274631974
0.6813025917074785
0.7339562986756949
0.6743403875104841
0.7461347393488542
0.506778054950714
0.5354871984905757
0.5747088796519884
1.6180216805953964
1.8134981697834531
0.4464668403214464
0.37973021422169406
0.4239158437115131
0.4461481072938918
0.484171879929209
0.3157139831820729
0.4813848371264632
0.4086157556155786
0.3167505578779444
0.3231792514683417
0.3820066042909735
0.25414253051423724
0.18759103987873826
0.2094045543342667
0.3861867453460255
0.29048415784710274
0.15707469892463563
0.4780501960577826
0.2989072586091975
0.1947186768237914
0.667475859992775
0.7044414100705593
0.646665448403648
0.6257352194918424
0.6469139808939635
0.6997689845037742
0.6717154642331148
0.3757561858206375
0.5688998100329387
0.52209529744306
1.8712502162641957
0.3454386854281916
0.38933559960970715
0.44903476692674854
0.4571003858640074
0.3133815817656056
0.4847892052549326
0.311497432340993
0.38452150156943
0.4281563517067116
0.21161421731349891
0.2579047554830624
0.22992718095896972
0.26505313842639333
0.336280453766097
0.1539709656806947
0.20567777253452943
0.11676197688357383
0.5794957613627228
0.5376859228699128
0.6074168003135256
0.6024441196113054
0.3206572460239119
0.544738655415575
1.965745553659363
0.32872061567934446
0.5045244763532265
0.33412347652664565
0.42273366815557717
0.26721106279793255
0.23010887386973508
0.27098622792114696
0.3077094385144388
0.1724099190551883
0.2321048044932489
0.5420243494673097
0.4989792678273435
0.5784632121242522
1.0114512749387947
1.0304055364896694
1.4279195035388887
1.232721631368389
1.0795980204904496
2.0638262850065057
2.1211192640252947
2.1977921392866993
1.9479307639332153
2.175233068987873
1.826663453061872
1.4507270000131551
1.7563558970053172
0.3554112355310815
0.5531920211523963
0.48346125208494645
0.394217198429711
0.3059987810736075
0.22567618220289296
0.16901550344287233
0.28899050438860824
0.3357862097036904
0.22216691303115077
0.9089463485728363
0.9354447867167498
0.8375798838789162
0.8613084025155903
0.9823343218633722
1.037820820916097
1.1174498982363816
1.290883555222412
1.4955675707906708
0.543520330838574
0.6257241925466531
0.6082289576586234
0.6359589390261214
0.645021585832548
0.7237590266431495
0.4022153404789511
0.4827640915365082
0.38514247588861045
0.30800350142042127
0.28072897610649666
0.2566387318144296
0.3159269048782873
0.34048361299685287
0.8632432420807674
0.8079848180780328
0.7869111837767431
0.8139411546423647
0.7043713062477985
0.7284728447700992
0.6711314515983327
0.9307917159646716
1.0377083977805308
1.1835009150704496
0.5847524192997415
0.5980320562221889
0.47704527742053904
0.44508289378487015
0.4069012333396686
0.31649104773537595
0.34756759489036326
0.40964045501656443
0.7630104773834782
0.7662357321222575
0.7525318832888549
0.7423374975257155
0.7737250138445649
0.7751490824703949
0.7230289950971008
0.6960402305004608
0.8573948296949937
0.6401857453416072
0.44303436571470245
0.2992815797603458
0.5041519826960272
1.0117124771702741
0.518116266909749
0.503300289799231
0.620259470050471
0.4432129840433046
0.37762698019224933
0.42110983137672714
0.43561323438624683
0.593272787611682
0.6969192960884522
0.7441280435392111
0.7405998669273144
0.7289400523798027
0.2696400322185887
0.4491016645995078
0.07077400808171695
0.27926024423386847
0.43629889753509615
0.706416737893246
0.5777207882802355
0.6318541208838224
0.6473780244690893
0.5887588417199184
0.5522576716714084
0.4500681911210105
0.4655093043884093
0.4273925388611568
0.5977030255203356
0.695113181482513
0.7337578447655666
0.29404078585702204
0.4371186190599393
0.4855891402806514
0.545403060904347
0.6616986172159672
0.6749125702067472
0.6822307565885746
0.6549979429135457
0.620276066565811
0.48635533735918113
0.4998852794792785
0.4710899878660082
0.6999331747342001
0.6443485945221147
0.9919421431366361
0.6970148431299589
0.6802798937158311
0.5262440939351067
0.5407524633123872