<?xml version="1.0" encoding="UTF-8"?>
<VTKFile type="UnstructuredGrid" version="0.1" byte_order="LittleEndian">
<UnstructuredGrid>
<Piece NumberOfPoints="5313" NumberOfCells="8293">
<PointData>
<DataArray type="Float64" Name="Magnetic_flux_density_norm_@_t" Format="ascii">
2.3243190129177573E-4
2.2678443170219973E-4
1.4141683028296557E-4
2.354275905097019E-4
1.4512904109069047E-4
1.6490991787036958E-4
2.346057399633711E-4
1.514589504187831E-4
2.268066713425417E-4
0.06712123203285468
0.08763369115687995
0.050732811550285785
0.04657175726256381
0.05437773843464915
0.032146614992843034
0.05315883832612082
0.0769460144658115
0.04463957596874399
0.1017817387316689
0.1606669461423188
0.12514409793869638
0.14371325501955545
0.14499010357840542
0.17793138931717117
0.13177846982944058
0.12450035418829286
0.16983548869843315
0.171794357445366
0.19467078633683055
0.19753729045626423
0.26642871149411795
0.15969688635291535
0.15602793112907992
0.13603651160726812
0.13270151271861208
0.1422390191028895
0.1282431868498749
0.1270319017306477
0.12310660326027617
0.1243347922793357
0.1221510384417936
0.12417889600268985
0.17852096482100002
0.22200251011979608
0.12189170993562558
0.12562089956340355
0.12260866121916263
0.12431747416348342
0.12317185309469983
0.2251918760882507
0.3229179303132861
0.14328123630342687
1.131268104728964E-4
6.99027545859626E-5
3.054118385379257E-5
1.0059088873778585E-4
7.098505734777277E-7
3.225226034811723E-5
1.1402330532552832E-4
0.14620377373711238
0.19325455349281453
0.21527357064817645
0.13257809482713118
0.05499999780035806
0.03685661599986499
0.09979167421862438
0.13223684353765075
0.13574503684668193
0.12411234030040041
0.11393153267560979
0.05201436972808978
0.10652767051763223
0.10150657335443099
0.08336497665240052
0.06745330216497418
0.03988034338307304
0.10445432270588606
0.10396397304307486
0.10725053247949551
0.10675971462254479
0.05935998725700301
0.08667658679255755
0.0729402773689947
0.09879998888156108
0.06039411535081859
0.10153662005911573
0.09689406336908586
0.09391954537466855
0.07115956089349235
0.08115127536940059
0.09257113310508096
0.07278207583030226
0.09549979883515021
0.09174326120662692
0.08585523850836689
0.07924717665100918
0.08774108052353696
0.08004075524426384
0.09042888858405344
0.08774904178098132
0.0836788275669893
0.08590201543974776
0.08307316117290288
0.08682131553529653
0.08527123007777744
0.08395710820188067
0.0831745851295983
0.08432859466401159
0.0836911478765191
0.08243534026909853
0.08162494098021361
0.08230198366691953
0.08057274181756842
0.07919237813058366
0.08018563996089549
0.0781255027294631
0.07609097922798397
0.0777036009102849
0.07532663297243587
0.07241823394015884
0.07320350891389577
0.07470898596237324
0.07121920675895692
0.06857166022115031
0.06415233679938333
0.0675831223262382
0.06530199592611076
0.05471658497875819
0.04746744432731244
0.04271986755893398
0.05254580204284537
0.041490048064005185
0.03736338276567027
0.03461161492174473
0.02737738248642359
0.0253186673888282
0.028780675270780976
0.024568654305701116
0.01932608317369773
0.0477128051996237
0.018437592962698986
0.015458425879246741
0.013980171840978007
0.04052956268389228
0.03368446261136251
0.02222721379657888
0.028975303186701426
0.023407566236453545
0.018932667286864307
0.015242340888162646
0.03740918104922819
0.02942398918252384
0.02863706918228399
0.024953101442462128
0.021771064903402516
0.01904844460479208
0.03650211158889495
0.030594243617586038
0.028181614667192826
0.02552957145652246
0.024819775360256733
0.0370540082321945
0.031658592855933254
0.02796522558515705
0.026778682431259207
0.03974857198552716
0.03374760710819816
0.03656919758790111
0.04066715541029026
0.04655899607111117
0.04629232744387912
0.05113076185277884
0.04166064655456466
0.05321594359961709
0.0637009395907618
0.06420894574070596
0.06545041707162182
0.062280007372216055
0.06662112799631605
0.06925977320179735
0.07217474371036905
0.07273041443960768
0.07410902896429397
0.07568788169308381
0.07046152124455013
0.07410513742746859
0.07634421535039111
0.07809944628443656
0.080594066352125
0.08097025333158232
0.07993385712121448
0.07717811802173753
0.079059652137479
0.08097143007657738
0.08160986950484377
0.08063512566840685
0.07970708067299181
0.0821170442857788
0.08088638602659001
0.0831657680616215
0.0830187418774394
0.07818326711991416
0.07781980573257642
0.08547693470625338
0.08273470846087665
0.0865098585121585
0.07284776033267691
0.0798629959895263
0.07167157153153153
0.09124457739408902
0.08689137111837729
0.093812068638708
0.08440003500940364
0.06419348729820322
0.07382662239558178
0.06293581691397705
0.10005576190534143
0.10364973835754908
0.09659216950877302
0.11131225263208785
0.07869978849191799
0.09136318844180866
0.05108105588645844
0.06455177230696336
0.05292656218768636
0.1097974103517982
0.11551624525335924
0.1351814416894515
0.06957681879265204
0.11046947491415228
0.08940692943360057
0.03476845510420431
0.052459281996704965
0.09813307265090983
0.13011812922731408
0.058522862905802234
0.15581160965082785
0.17323465611439276
0.15093474976406498
0.07844367040836299
0.11205058933547757
0.03795634980996935
0.12537842535894972
0.058398632296249496
0.2826146093494943
0.24599075420653307
0.16115114744313516
0.09684958062560121
0.17162661453632735
0.2885070384057982
0.25387541349187176
0.03732553352589621
0.024475306778818293
0.03503881105110761
0.1444422502514584
0.14821281244742007
0.06567355479169036
0.0886380044361454
0.10200097035578838
0.13850136337659674
0.18059540662749873
0.14265493197550547
0.02384549210817706
0.049964446888019154
0.041564632145555044
0.10692701172982808
0.07493654474674191
0.11712720844771286
0.12836449873524206
0.11892743268912563
0.046543870230283245
0.0997972793350793
0.060728485326650476
0.0836845639123963
0.10372938471545406
0.11632299007732778
0.10523751392042253
0.06567887038020553
0.09118615649180928
0.07821948788026359
0.09594274776121799
0.10328175289634178
0.09722216295402501
0.08021831899036252
0.08803966752724128
0.09295643892222723
0.09556157098830381
0.09267070957347097
0.08761922484884599
0.09016581919190388
0.09008020082181212
0.09128246120612578
0.08905194626818178
0.08816532255645966
0.0883792312397474
0.08735479022611053
0.08633317234601334
0.08558445223630858
0.08414766303598545
0.08422681909416928
0.08211988853079254
0.08228149856009204
0.08042361020134434
0.08007091974234062
0.08119839117089811
0.07598992901048256
0.06683762982959181
0.06899222885354003
0.0670600634356239
0.06501192410083242
0.06732358927191708
0.05804983178448173
0.053225602989162735
0.05356272752337461
0.05814004055633303
0.0498388733751462
0.04338714001725569
0.04520616380530541
0.05383513673483552
0.03690545349304202
0.04428389053376805
0.05244046826747997
0.034644219831113966
0.044315282833910175
0.053713695301245354
0.03681189356182768
0.045143964074397656
0.04975848199572201
0.057949202618208975
0.04323591595801467
0.05318061600315861
0.05805385008332024
0.06715406746306649
0.06739793865078639
0.06872793757260032
0.05305574360322218
0.06501103933543412
0.0741474881507101
0.08160889122143465
0.08090483031351299
0.08287775116170466
0.06680736031229605
0.0827259323752147
0.08500282121936097
0.08656474977509337
0.07948783893698519
0.0653219099600817
0.08096199844096237
0.07053068454466095
0.08052881969541631
0.08509782805811725
0.08751031370530936
0.08934802040761909
0.08731529720247955
0.08823055096542816
0.09108200099368989
0.09114416959709405
0.09002012457691151
0.08277822793286006
0.09808589157709824
0.07465438145986908
0.06168379482249514
0.06326033899932089
0.091874117159389
0.09111414094855384
0.09101857037833941
0.09005671278150222
0.08877422406558826
0.09348095340164192
0.09349565723544664
0.09981780652963564
0.1143592837797611
0.08878398898229732
0.10905608936955086
0.07077414764922262
0.03695475696976993
0.09296791747565657
0.09214176023530557
0.09777098699490974
0.10780342319925351
0.12040826445362574
0.13855389149098746
0.13137797791986167
0.09981203110950183
0.13752383068596968
0.06647495777464153
0.09659517354339366
0.11468130542403783
0.10414451408515908
0.1641897573312894
0.14698855922314508
0.12826489908127256
0.12172680124536323
0.17110892421536342
0.19525956304890787
0.1279794727302274
0.20667098160992947
0.16805648754145572
0.13702210930136147
0.09163698702423835
0.29408382883773493
0.3151918863256871
0.1309685960527632
0.038873939921118414
0.025999098564941148
0.13110994821641214
0.16423534272501478
0.1782048565388176
0.1257447373151362
0.12827684286392546
0.03161975052862773
0.01826505782763481
0.1144476555911048
0.11396332844678343
0.09124730418272149
0.08706025467950244
0.07202832804399112
0.045557915866682265
0.05833742588521559
0.11257157559347915
0.11027762868908532
0.10255173102810718
0.04191383007957263
0.0943937515870575
0.07391504804142703
0.05822091890865485
0.09761341216933393
0.09724068998629337
0.09472020728503706
0.06064767435142321
0.08460613961891326
0.07250381252656397
0.08903818479304398
0.08961198573631744
0.08814655955179458
0.07405281128412304
0.08143424308644463
0.08560004305222378
0.08473862006524056
0.08385957200700744
0.08053660219911694
0.08225687346727584
0.08159624030126306
0.08073181032047781
0.08087463782248226
0.08030528653980344
0.07889037142055531
0.07832306992146497
0.0777388400393533
0.07560729076384505
0.0792535687556607
0.06860116296486572
0.07134788175082575
0.07040787791178327
0.06898473608007687
0.06789053805783773
0.07108717378232292
0.06496961895438982
0.06309933253879355
0.059261390896791444
0.0604890195442932
0.06431046326163849
0.05226270649540551
0.05568692277305507
0.05974798844740769
0.05871794543084985
0.05944720612488565
0.03610133502025305
0.061319027198512864
0.05424801597201958
0.04728978296869074
0.05211086915863669
0.05846007276035168
0.07812063369286261
0.07472886549708313
0.06978853374567744
0.06692712911429029
0.06535407544895683
0.08435153377323414
0.10481295731283768
0.04547887213818499
0.05194183551065892
0.0592303879608169
0.08878186621785807
0.07844931884693926
0.07657208716778513
0.07313361469259101
0.07365784623092346
0.07706026191094235
0.07702917616436922
0.12750702653556054
0.14878383965494127
0.11794705399821083
0.1307861382980072
0.13780897018786506
0.10651676998919661
0.11133285284014316
0.16684023146216245
0.16088541598921147
0.18212486231352648
0.12639335593791268
0.18712946004881062
0.06869281732587613
0.11302711647631715
0.05508831583505051
0.06320608911070504
0.059347198698464575
0.06168417539378714
0.06339357992431097
0.06922935612157377
0.06601531960661712
0.06814335945204196
0.04693343524514498
0.08698877681016363
0.07957518178227978
0.07823231458012571
0.07767970479445935
0.07989679940801472
0.11092537364963233
0.09745558691656313
0.10530756083679664
0.07737502616216259
0.07660945089753878
0.06897715778049758
0.07634156548296582
0.2579885036311765
0.3150028881218781
0.051454543824219594
0.05781622170190591
0.0668542163472269
0.08513467997070481
0.07982954009782593
0.09304635561335188
0.07277941815208504
0.07495838208165595
0.07551890811812187
0.0771173344171453
0.06613298914228816
0.08384102495996713
0.07862716311512766
0.07463582865142357
0.013293796120333582
0.01790425804541097
0.010578814544221792
0.010222836747450425
0.005823119429963923
0.017122012882484272
0.01891458294349166
0.02441426678955549
0.028132339682820983
0.014127865119446725
0.003014703495118656
0.009061667460743099
0.036661623799287606
0.05049722510230962
0.021104224117621962
0.029190418298143162
0.016407647111109865
0.010519853912698865
0.05672275789234646
0.1572819186045907
0.08974135531798773
0.07117423901041797
0.03982992257518977
0.027680859736848525
0.0199605692866922
0.06566251131216758
0.06359688515209021
0.05434692465756353
0.041695742440836674
0.03267188197062697
0.05691353002987759
0.05763237402985433
0.05164508754143229
0.04501211243468032
0.05459151253612768
0.05694412206143044
0.05212000573424811
0.053724384847752896
0.04786697233496184
0.05293159783206961
0.05152832326734443
0.05134359014487626
0.052083194860098436
0.053705867233133316
0.04652780090733777
0.049739809385449196
0.10522266183555606
0.16174570916572675
0.0812868716301854
0.04616119832123438
0.04891419515007561
0.0514593102698371
0.047919807689336076
0.08649308838749434
0.09173568560901706
0.0877481179787868
0.06768236401950697
0.07392525077579909
0.02343054790295875
0.06297906755430832
0.042039328548037415
0.0603765011849411
0.047448582998699175
0.050405246155963
0.044245877000081514
0.06356534362963562
0.07798507070207372
0.07147749130521894
0.06252515273233662
0.05039874651095938
0.05154559572665712
0.05263056564018814
0.051793580982715956
0.05480283149539187
0.05508117898699685
0.05127287453849671
0.05282700432969661
0.05271879234323302
0.046349228982140146
0.04994614491710653
0.046156191018193106
0.0500679964341569
0.04841456483745245
0.05076944076752731
0.04799404027568443
0.04696619233404112
0.047180632371325436
0.042881723298533424
0.06072962651630082
0.06716690532158252
0.07241815669118389
0.05207902466819776
0.04991779903011373
0.05493880946750296
0.05190756687981753
0.04545860893130361
0.042109711179073805
0.04257193133936161
0.04358997337129491
0.05853046718449478
0.05065730636480457
0.049985876035215704
0.15506391254224905
0.12949751333506396
0.1256818919468753
0.12879779053903237
0.12124476103749382
0.11841542920040021
0.118585844923309
0.11949524739675006
2.1203775916521246
2.0030748878056817
2.1287166105459696
2.095646719467828
2.045463972467965
2.025499131758576
1.982389896773986
1.9728583075182942
1.7516772174244837
1.5027183668027755
1.126174891307823
1.5503437133862805
1.6577342167554558
1.7797061072587117
1.682240123963653
1.9715056665528483
0.9177601886466276
0.9566513013852749
1.0213295951976848
1.35207427707364
0.9204070737084328
0.8048108123091695
0.7870584950582513
1.6895469540072563
1.8128349576942606
2.0800692360639297
2.130636307254439
1.9710946737639097
1.880488057544773
1.269834891589069
1.1720615810786932
0.9967764105294102
0.9083422539314171
0.8271654114905576
0.8003937350130114
0.7592640106200735
2.172909936134667
2.1414650241337476
1.935700861295772
1.7816844095881752
0.832754950721439
0.7098104572826686
0.7447783200009418
0.7791906265577455
0.7664822444499106
0.7880066971168507
1.8204323586047353
1.5115652832151287
1.4952895465780889
1.3948347401259202
1.065694164162479
1.496861292971987
1.022002876655432
2.115357696260258
2.038762029591524
2.0717237000478343
2.032885233457461
2.0149075284372153
1.9974284556139426
1.9589260962895239
1.8817423321353735
1.6998555799910449
1.7270301166730853
1.5772755710716104
1.3008141223179195
1.1165755643320903
1.588001795550636
1.4611781461413689
1.2227428687144524
1.1818574051067998
0.9959190272338514
1.0080959194407895
1.0560106269676381
0.9925999066714167
1.0724698713189775
1.9840223254784257
1.709020951431769
1.7687444091436537
1.8291976773888
0.860434319595876
0.8261039923601187
0.9014289806474404
0.8482833058884033
1.0627222626132475
1.1583875425443553
1.852607026168662
1.9458058530486229
0.7084681515418941
0.7184153798245266
0.702666434049454
0.6811654654202789
0.7126261792815498
0.7445180457444932
0.7845795438603639
1.758109959385197
1.6228205659188086
2.0833468228508605
2.110150522401491
1.465634162987957
1.32882841133592
0.8349953716984245
0.8333400546889379
0.9686076784955301
0.9656449611590799
1.096703537950138
1.1295389905182518
0.7017568706607062
0.6763669698420004
0.5793418050846647
0.4623880838219548
1.989046502485233
2.0690052211454315
1.8790235162112368
0.29829192485464257
0.36688298550702325
0.27809111067519504
0.25032258430657744
0.2931234454631727
1.7334353791737902
1.6612114696207996
2.0674230989419176
1.9971856778006682
1.9579434682073602
2.118190340613564
0.23548154317102923
0.3043059227493504
0.2529382005188122
0.35666077210222413
1.559374229972662
1.4098753321209152
0.5221147372694016
0.7998471733376368
0.4992525458961981
1.6843724070101918
1.5287929671452873
0.26581115134362937
1.319396391902045
1.2178458643084922
1.10414866241718
0.623702076310963
0.9174705486956368
0.46627485419578885
0.4685398508811671
0.505734056034639
0.6150715857534071
0.509836268281481
0.46595514004335487
0.16127100562616734
0.024950975881703488
0.21168760170442272
0.46055014096613806
0.5909255595758071
0.5165485138468572
0.7843968247999437
0.25177785933536717
0.28733291892676466
0.8002301538135098
1.1317953168403774
0.23982269480747032
0.18232451135373287
1.4787995713353117
1.552479684792057
0.13455212488256188
0.01599875742294636
1.7106827314086264
1.838532823783538
1.9327705177298826
2.0864176466691893
2.186408334084664
2.1552961111708786
1.9691733823275501
1.8854298139944905
1.5966369980319202
1.5171253907465878
1.2986621615912037
1.2462480582173299
1.0496674145073106
1.0880544985362508
0.8413083865237807
0.9691377840174611
0.7907429335245838
0.8164754989652071
0.7520734885898249
0.9235688861768673
0.9213094102067839
1.1628599564307078
1.6745735999076956
1.6380393476135762
1.9194536507562703
1.9680877279037103
2.1209310562342663
2.1686340365549808
2.2131099852644316
2.1689111728632864
1.954890118035025
1.8336457782446687
1.5219439617554509
1.4008413186753925
1.1719608485832185
1.0868146390175775
0.9346107890531546
0.8196823673726552
0.759074136635541
0.7522450906031944
0.8550921007555417
0.7799517985622759
0.8820413360677349
0.7076934408743075
0.8146802537260106
1.0047792698499898
1.1697053820908523
1.2235420984432128
1.5744181426812485
1.0065148702709354
0.7882978002823438
1.1626782872804349
1.5010809021106701
2.0354011439604083
1.6213472072751272
1.7686263046197188
1.8130644173976622
2.1481721886835636
2.1568878207811433
2.0759616882429928
1.9987745143859332
1.931169424153573
1.9928428823783668
1.2168577868295818
1.1085485481406976
0.914139403653087
2.0884322517949494
1.7661976193636364
1.5616765841402231
2.1722836245266
2.073698978902849
2.0100189476609067
1.0159512948730234
0.617597458121679
0.7200628962261176
0.43913744118086656
0.5677503042913357
1.3630338956252697
1.976907257755709
1.3110074171790467
0.6471056154621843
1.6860864354203775
1.2670303511881162
0.22415781362189452
0.3138400986403385
0.4449972493836983
0.5481492864443044
1.1007231198807828
0.7921838614705076
0.6537507610978912
2.217161380882344
2.0572112252579142
1.9309420824683123
1.0489315414822444
1.116747848781468
0.8321802993439211
0.7097369453092367
0.5445430879263924
0.5938099250401012
0.5301143355249381
1.1910620645292176
1.0104814508075382
2.1033740149532396
1.7016537866585577
1.5056476864951118
1.5211470925426225
0.15877659271232455
0.33920156553191383
0.794946525676847
0.45068683080433164
0.6080262820073841
0.7213926955407602
0.43418453236144616
0.8351750290628417
0.5391863098342876
0.8992212854561131
0.7527516775345442
0.6582842518573278
0.5492515462697988
0.4151722401094362
0.48450312169622367
0.9563500777451708
0.8540119741900662
1.213135897781651
0.9628694251293981
2.041868263153533
1.9480462218572776
2.0668420075800635
1.569191162547011
1.450846267527695
1.0362666446302373
2.0315852385967546
1.618167755315844
1.665770926156567
1.5414713159761582
1.39952620986349
1.3041542072493904
1.2785891277691872
0.9144512732561042
0.30875286122789375
0.4089718969982505
0.7510086417327502
0.5299727952680754
0.6349045308743838
0.48608474082998415
0.13490207234342005
0.6504161579422476
0.7409612951263771
0.5648782931712221
0.5798076720441175
0.4761835772699994
0.3618731258642626
0.804388682604776
0.7165040730634159
0.6619245413115123
0.7260450203415896
1.0031646633118638
0.554480405758114
0.6955856645897656
2.1452597929557276
2.0571861140381307
2.014055783566766
1.6974777122301254
1.721246333515003
0.8982109135508186
0.7312875869546833
0.4861917871191477
1.4629209311698836
1.3063640855197949
1.4791569714079653
1.2337544137446559
1.142173854395443
1.0764752561997293
0.8386546897215339
0.9518338785504002
0.7330233002675595
0.6375583522678022
0.4080349182572425
0.46915619167721
0.6836519714267442
0.5738552971272917
0.5147617592337277
0.26946541032434324
0.6259282034654955
0.5575530700713907
0.5054116408924022
0.4072660761152122
0.6875821612570993
0.6238708049575665
0.19459824126615752
0.5366068738257717
1.79960758102409
0.18291264674513008
0.6219936191389962
0.4779067787960843
0.3696755900026054
0.8105102393285545
1.194963998698385
0.8999082176820562
1.026315750458224
1.9123313484920523
1.1900352519987916
1.0709642187929576
0.963899018031468
0.9258903227126174
0.8158956944085095
0.7086472736362399
0.6428127610783914
0.47462844512818947
0.5127951307323692
0.6279141711137698
0.5577179328150489
0.3961323724686097
0.563856808341809
0.517011981317768
0.4581896582388622
0.6019034655484202
0.5597022477534906
0.5029595670511499
0.6051243663480358
0.3186464649216517
0.27048082458380435
0.6175038848605231
0.5365043092642857
0.4629844806843457
0.3913644842711794
0.647370854354128
0.7206877123619438
0.758702811859989
0.9395856485179431
0.8345245057096755
1.6453281740744983
1.012400402646368
0.9171660230769402
0.8209046534570386
0.7280237630949088
0.6660301496006366
0.5149812263614026
0.5307566978670379
0.5876586990661655
0.5466018073421032
0.46217512733103255
0.5224015789106901
0.4911951798381249
0.5453461950608155
0.5198612483959106
0.6169932514507747
0.6653707838113551
0.3914893933083399
0.35894608090619
0.3669859045869633
0.5416944351320074
0.45045803770821496
0.4324923277830339
0.6227708516556753
0.68242959489559
0.759151846148218
1.3863036303572374
0.8744006343017348
0.8019129787101109
0.7196949239900414
0.5309165879004127
0.5537573383667087
0.5353901200477476
0.48956169027403246
0.4996364995934557
0.5107289750523847
0.4974628627635014
0.6683467750746388
0.6878885867736724
0.412700548106754
0.4063419194913826
0.41585123816653957
0.49690665515533006
0.44726752582274054
0.5608231008106905
0.618554237912007
0.7117696058490892
0.8401615634835898
1.016857677845733
0.776235947921584
0.7354845390600832
0.7058677533831823
0.5265205484856974
0.5207695325525306
0.5213664995971545
0.49198470786912757
0.4864034675589701
0.4870934128714484
0.48135021767776554
0.6849053627538862
0.6893435340771236
0.43540244879999784
0.43938314764109626
0.4322395386477822
0.4730944064507299
0.5150461299338233
0.43095717531842687
0.42024390982131504
0.4301693058493002
0.4123462682286391
0.48492780538223107
0.44668856903105514
0.6101674653910747
0.5320772606870429
0.6488698246806719
0.6799025531295699
0.7170526678585389
0.7013816390609633
0.4942369410541199
0.4863290838470009
0.5045540247105559
0.41930819510209066
0.4160010590172232
0.31524164713917874
0.3759314390278641
0.3602832358371642
0.31503239692534074
0.3431727753059038
0.31811088573377727
0.3381535221485103
0.3162703851153416
0.32884757211552396
0.3148495799578585
0.31960410282916885
0.33497547225025187
0.48005313034808855
0.4697920683899302
0.4657524946174942
0.6801307578601709
0.6798153114889041
0.4712346918059891
0.4413582548434172
0.43646513994113906
0.45264327377488817
0.43873043613136375
0.4789274658567937
0.4143694646038393
0.5235298863464555
0.5671150744473117
0.4413494861048583
0.44643827852803164
0.6804401316393792
0.6651511205479504
0.4665910031342058
0.44918310177508064
0.4719261732373087
2.0871277597108224
1.8786695257746011
0.39276434739815463
0.395124682436905
0.37651334705389744
0.3632585839834075
0.3601774586639166
0.34151629978809894
0.3321267848469372
0.34510049102668555
0.2540556700571907
0.29158180500871345
0.28675170606630507
0.3149442605009317
0.2922307964805687
0.3029386848933032
0.45979704183685666
0.4474784187932304
0.4423003496726432
0.665139098119342
0.6514142837106565
0.4311628659123459
0.4086099740236298
0.437712994956103
0.39289005198302657
0.45167836482470075
0.4387814259610868
0.46866210248006596
0.4240668760302733
0.6433772730907711
0.6277618082770507
0.4346809087627024
0.4104027517875204
0.43646281425690325
2.0587234817433777
1.7927311488670656
1.7997179852889158
1.692491022135358
0.21806215963059225
0.19818739834190033
1.6078191995969746
0.3579188923001673
0.32506531782411313
0.19998601236217328
0.3044282949178572
0.25241342622735374
0.27781642556329755
0.4334011915444312
0.42255646467304464
0.4152948941078119
0.6783920486365479
0.42311914032376813
0.36026205934551686
0.43431599122581055
0.44480948637320505
0.3819244996649773
0.4116648689766884
0.6149639180193928
0.5709387888313311
0.4006703443387166
0.3720659656923417
0.401134060480132
0.3732860607114566
0.3544276212946802
0.328100732853029
0.2989973646862361
0.27545431266125053
0.23437067110040166
0.22304199304060301
0.20989098890022162
0.2624681704327436
0.24954472948292064
1.577231689996265
1.298472206131561
1.3643334298517085
0.1500258761162888
0.14684554693851362
0.14280784808562316
0.35984400873378614
0.313805858156214
0.2845059298280844
0.18366995409250345
0.26154459764449167
0.2340203462318338
0.42314303450519564
0.6079742976621726
0.42983855169037427
0.46435139615987975
0.39888699427696706
0.40293260825409866
0.5869145875901417
0.5681154759620305
0.36814714838375656
0.36729897158330377
0.31597861304812586
0.14588963942317734
0.1925830958823486
0.3505292032653179
0.28805414442485916
0.23972122366843085
0.2820181333107916
0.259725508765115
1.2880960568146953
1.1491978639180884
1.1603028604887093
0.9903717157781783
1.0093549728705502
0.940318956815618
0.08402077254583123
0.09131726841053296
0.3588790120039061
0.6072640273703108
0.4156786295479586
0.4673033444229085
0.3642796909394614
0.5260541477845359
0.473481773157745
0.33274000364595174
0.3049391767231051
0.24550803403114632
0.2803082038698346
0.2992330855757603
0.3338684510154055
0.28869482130499285
1.0628587163199994
1.0428442678390337
0.9227959707999271
0.8805022346454496
0.880796174761581
0.8554221158241044
0.8322769889271245
0.4719285415010213
0.3574034197692918
0.5567364391670334
0.5550197670458753
0.5297670620160383
0.5609592138963866
0.617851954808361
0.3495426976216067
0.5725082534937568
0.5005174436039297
0.4181942920921717
0.48417940420736943
0.3618293339463074
0.4204715113750886
0.4647153431938104
0.29594239883191253
0.2389190489263343
0.27576203843815605
0.37440380882390706
0.30703442625461974
0.2780856153697116
0.30977883602282524
0.521646434687391
0.3658616794092359
1.0040490977808578
0.37868567930300606
0.23674121981206278
0.7500450295054312
0.5639795662700914
0.8919852201140678
0.8292715744146966
0.8074119811932253
0.8112639854689728
0.7840586409137161
0.7137373478974482
0.7577876619967228
0.70930551346102
0.7684584820947312
0.45406016935456534
0.5843156221108442
0.6218760499717725
1.1841477300270005
1.4310853983445178
0.5106053185817516
0.4376994956914846
0.4778537025200417
0.49523417802932324
0.5325751840143508
0.31481939866279646
0.5587380902899189
0.4759314710450579
0.36763340690849683
0.3763158486618851
0.44701130474264456
0.25194849546989795
0.1850892910302889
0.20629081877801209
0.33581718359632184
0.2522526162565392
0.15436191042287306
0.11164306091092206
0.30486516225461174
0.13533418854297924
0.6303557251721345
0.7106094212207124
0.6912668501843827
0.6656849502611795
0.6837302164215733
0.7234470200377023
0.7045985523292765
0.4368530063970417
0.6136566376858481
0.5680205145058563
1.5975457373724653
0.39299600305208354
0.4338683894748041
0.4959884235587067
0.4989649906679203
0.3096494816653002
0.5676356561937934
0.3647463467375854
0.45194308877250505
0.5033074057513341
0.2078334995524417
0.2539752907368964
0.19922088367345125
0.23022979312053676
0.29275832260448076
0.1508727025694541
0.20142307015342564
0.28529533873548313
0.6216221374851912
0.5891317246333533
0.6478965086198237
0.6475234535615766
0.4402196253880188
0.5881671357438156
1.8168152589167779
0.3226972915433158
0.5957033238341173
0.3935198522930063
0.49933984574086837
0.2617041720191199
0.19971662944509208
0.23567081929726297
0.26814788635244086
0.16856469208928995
0.22676329126605807
0.5816439466176452
0.5711728701840606
0.6272565908721973
1.1300419769900962
1.1449268365474692
1.5632510453567632
1.3665155148611194
1.1968280658966037
2.0087857162850007
2.091302506730738
2.193414778565403
2.0212930578957926
2.2291827090572274
1.9178426344620259
1.5814043936012698
1.8727277483862614
0.3470435457800732
0.6595953522622505
0.5759510920020383
0.46790988949751844
0.29791473120366835
0.19618575902913818
0.14719610226755445
0.25159952860783846
0.29272150458189244
0.21657809010921494
1.0459351280719362
1.0600680059018515
1.007149909134246
1.0183985286710084
1.0997573123712472
1.1481386953645356
1.2453767432977865
1.426857833890255
1.6292742457066567
0.6551279106779738
0.7574178862649256
0.7422533710489759
0.7792335092444893
0.7948676931601643
0.8975420309955147
0.3903503324005466
0.5804194830823943
0.37217360355211543
0.29852784246276953
0.2443895092698923
0.22338218314631444
0.27525243137301353
0.2969505271583271
1.032004949552539
0.9937672605585046
0.9787938424853108
1.004202277475501
0.8786931670519287
0.9106273057783701
0.8322913885538531
1.0776037586972251
1.1419314832212535
1.3284456390755193
0.7119110148143083
0.7374499725646286
0.45847561254260344
0.4269228004735388
0.3915492525653776
0.2754896640288172
0.3027418713648681
0.3569655216643385
1.0238820901021135
0.9626899735981786
0.9448717483020977
0.9339004292935499
1.0015022304057106
0.9815225196969709
0.9090529999252421
0.8699338543089123
1.0550173443605873
0.9720021998041591
0.7293322157504338
0.5307783447247978
0.758535596690913
1.1231850481214487
0.4932962992536656
0.4791283674405017
0.5847317966276857
0.42318549225774493
0.3287428577055498
0.367000051851733
0.3800196401817976
0.9105560513893735
0.9836011628174443
0.948463392025303
0.9742653837084126
0.9263276320332644
0.5557717586915977
0.7534172650035176
0.3090201555745014
0.35975390486013215
0.6065321979064208
1.0096790874108903
0.7870983418488277
0.5906499045885396
0.6036411926300841
0.554914019223103
0.5226060888828965
0.3921767536921659
0.40568681416711466
0.37216048569951105
0.9023753924505028
0.9634541028119935
0.9595743553857159
0.08696640311818042
0.375554260873876
0.5451839966216439
0.6758827904775755
0.6124616852419541
0.622582398287744
0.6268594838754875
0.6070513591191893
0.5810417237919993
0.423469246046628
0.435152080192921
0.4101690208819486
0.6402782948698771
0.6219724398584895
0.8393771996243025
0.6365384543324201