<?xml version="1.0" encoding="UTF-8"?>
<VTKFile type="UnstructuredGrid" version="0.1" byte_order="LittleEndian">
<UnstructuredGrid>
<Piece NumberOfPoints="5313" NumberOfCells="8293">
<PointData>
<DataArray type="Float64" Name="Temperature_@_t" Format="ascii">
2.423648248056113825e-04
2.364355548193787624e-04
1.474397207177008742e-04
2.454470668305552871e-04
1.513053294486514536e-04
1.719255873614944754e-04
2.445425037754067978e-04
1.578986162147847500e-04
2.364603825727232798e-04
4.425576511198215518e-02
4.735780633815774021e-02
2.704912176025871945e-02
6.137220033567320626e-02
8.366514605261252124e-02
4.905931209241192609e-02
3.511857233594012362e-02
4.125931027428823145e-02
2.237486118657818976e-02
1.110389379801528381e-01
1.735082973586661026e-01
1.297495618521266880e-01
1.046109108999306730e-01
1.041255982456572859e-01
1.171036439341234248e-01
9.774812126042031757e-02
9.553707576649804467e-02
8.971906209253265041e-02
9.571875566535893720e-02
8.346758615179464269e-02
8.120600800329541569e-02
6.330796674141001001e-02
9.947527188174713764e-02
1.046200328257945456e-01
1.061342353868955923e-01
1.081976047808954899e-01
1.088501614298125891e-01
1.043565084632523954e-01
1.041916364801494937e-01
9.964277097932137950e-02
9.897627064797032137e-02
9.609804799972569700e-02
9.425533237089837868e-02
1.162459984074547259e-01
1.364288033169399061e-01
9.285801163127160862e-02
9.134580732974562078e-02
9.104443950241387917e-02
9.130102769753917213e-02
9.190910256142569013e-02
1.381613801499279592e-01
2.008011722843885960e-01
1.017363569279821217e-01
1.179422977129910633e-04
7.287432671604195046e-05
3.184721058695392327e-05
1.048708121001067160e-04
7.038805643174957501e-07
3.362414463667594267e-05
1.188735971147384713e-04
1.898513660128474667e-01
3.076400130236104369e-01
2.654573140460020353e-01
1.772808384969889739e-01
3.557481899717993001e-02
2.395971314523913376e-02
1.514080398114256987e-01
1.589822186933566861e-01
1.701349851454676543e-01
1.508342896961593904e-01
1.445754586166825839e-01
3.668815705529152732e-02
1.083300283018846927e-01
9.537493934012557240e-02
6.694735830561743262e-02
5.097029084221687406e-02
2.880361823936108262e-02
1.329231256104901338e-01
1.212977333378353617e-01
1.154924687801666405e-01
1.205542387180277009e-01
4.607241705001419857e-02
7.929282647537383433e-02
6.149412398398426682e-02
1.077254249050254853e-01
4.815223316155357175e-02
1.180427935750913704e-01
1.057860222349920609e-01
9.579119114194947771e-02
6.103608459366633571e-02
7.483152655145630661e-02
9.613778898129944628e-02
6.383702086261758279e-02
1.036470378841017476e-01
9.580823330771380542e-02
8.382653293671035732e-02
7.328012490112260913e-02
8.819724356872246651e-02
7.498544587086307389e-02
9.363189726870890794e-02
8.894970169616103761e-02
8.135309705438116545e-02
8.568689406744227355e-02
8.077557372046628714e-02
8.762597911953849683e-02
8.522148312967728345e-02
8.302933665955321285e-02
8.209296862568501996e-02
8.410231173794671666e-02
8.322796530034123896e-02
8.174859201636025530e-02
8.090183562909732118e-02
8.173863911952092276e-02
7.991509475403305029e-02
7.854641061426914650e-02
7.954965521757943747e-02
7.750196462967665068e-02
7.549583153504360600e-02
7.708756897660476448e-02
7.474430120837735614e-02
7.188064136186933517e-02
7.265411799508929291e-02
7.413606948479535552e-02
7.070093862537203677e-02
6.809486972615984290e-02
6.373438777892821705e-02
6.712222644877115230e-02
6.488143844603934396e-02
5.438196311530772015e-02
4.719053359833483979e-02
4.247324144209700669e-02
5.222758602980957093e-02
4.125595123299899414e-02
3.715644557021301198e-02
3.442149540711460926e-02
2.722922607169242157e-02
2.518308672282002642e-02
2.862408543694575438e-02
2.443615145765601002e-02
1.922416928877099598e-02
4.743996082009491189e-02
1.833541101933120962e-02
1.537624472127679248e-02
1.390186702234398261e-02
4.030692887344817371e-02
3.349966427643041866e-02
2.210609922698799842e-02
2.881656722087878528e-02
2.327661339948362135e-02
1.882475329958849253e-02
1.515200848819869654e-02
3.720330462255387605e-02
2.926075542871727983e-02
2.847578649027738065e-02
2.481083035357168481e-02
2.164445746401296583e-02
1.893459512531501382e-02
3.629642749135900820e-02
3.041987155303748497e-02
2.801908956163412859e-02
2.538068114646812798e-02
2.467322869069848990e-02
3.684058094792426463e-02
3.147560684727424007e-02
2.780244288274233422e-02
2.662225394995149097e-02
3.951916788272590714e-02
3.355318298746828160e-02
3.636057474994679878e-02
4.044012786705940277e-02
4.630274889953656103e-02
4.604488264218618149e-02
5.087132420738515320e-02
4.143471034966086236e-02
5.295130006648342963e-02
6.341111695919102176e-02
6.394180675652963441e-02
6.519229643316010181e-02
6.200513646904680376e-02
6.637365916505982844e-02
6.904068600468808714e-02
7.199500777448204769e-02
7.255750087230451728e-02
7.395770455346363514e-02
7.556186834022872445e-02
7.025836152617685737e-02
7.395252535266269578e-02
7.622996188574349130e-02
7.802213695352926137e-02
8.060490585881922854e-02
8.106385491843658142e-02
7.991754958236439721e-02
7.707489281424109717e-02
7.900189907367066722e-02
8.094086539864983609e-02
8.170491484343929411e-02
8.094426762514964069e-02
7.964386133984897864e-02
8.204733828192024847e-02
8.126890613971761435e-02
8.311072404528255242e-02
8.310537228598996462e-02
7.892036397621382537e-02
7.870008684906716623e-02
8.523486607667452031e-02
8.302328649434333185e-02
8.624793457111233630e-02
7.431871007969510778e-02
8.068229025276513200e-02
7.320451990742996018e-02
9.033440659728099453e-02
8.684883056639371157e-02
9.266550283794498799e-02
8.500599228880290070e-02
6.614564703079736652e-02
7.541288723788872050e-02
6.505323035906039608e-02
9.763422671763438698e-02
1.008445648531892946e-01
9.564670177538239781e-02
1.082078907093968617e-01
8.035212517596382331e-02
9.183054544637227201e-02
5.339549688231075286e-02
6.699987884484683021e-02
5.551201238877008504e-02
1.045017989617300636e-01
1.096783530387767380e-01
1.292125176149981070e-01
7.245819037994589984e-02
1.091845829009604613e-01
9.095809646014861582e-02
3.707589152805617488e-02
5.565232238306563883e-02
9.067585151834718638e-02
1.209390750243217044e-01
6.260647984156149370e-02
1.456523052012753672e-01
1.643556444657526538e-01
1.466005952200170881e-01
8.190456876935574282e-02
1.129345102603971085e-01
4.155074229980717376e-02
1.097406645166136008e-01
6.466380206879170089e-02
2.574595329593020732e-01
2.386406386078262776e-01
1.581034022290508656e-01
1.014805655527537542e-01
1.408046292701402580e-01
1.876089077431829788e-01
2.205895718568624264e-01
4.981688074038428254e-02
3.320047087876711045e-02
4.461985284139684954e-02
1.276229522781324455e-01
1.274444979225458074e-01
7.653115723489044286e-02
9.220188488261475690e-02
1.005608001866058060e-01
1.225278985479249794e-01
1.433800764912338821e-01
1.222839331118599770e-01
2.996659473013913236e-02
6.044967879530882549e-02
5.021161997868926058e-02
1.022924379107215953e-01
8.054816968360868634e-02
1.074464650020157952e-01
1.096529111615376084e-01
1.070756400766151167e-01
5.453635583426184874e-02
9.613183458860646846e-02
6.740663495812436457e-02
8.534120265321981647e-02
9.797026925362442573e-02
1.047758585848983931e-01
9.824071712753125463e-02
7.082008121492419650e-02
8.972058542416232185e-02
8.055713400396589952e-02
9.238226237723794199e-02
9.663416871669920638e-02
9.280280501725146625e-02
8.175893159863624471e-02
8.698571987218356449e-02
9.000267248059318215e-02
9.153254189792042750e-02
8.945541324680157669e-02
8.636507213012524498e-02
8.785468708197166632e-02
8.727829658206472108e-02
8.818055097489801986e-02
8.665338361303159820e-02
8.546521554514560637e-02
8.556268955970114387e-02
8.465702020136457728e-02
8.359790837465809477e-02
8.283927646459454674e-02
8.140644872757167583e-02
8.149068618723254165e-02
7.937914868521657452e-02
7.954246263501028869e-02
7.767042326173201339e-02
7.733377419081580162e-02
7.835892548950870728e-02
7.331193263767382673e-02
6.441158922359933869e-02
6.645597336061798144e-02
6.454600195388546235e-02
6.252593412936452433e-02
6.471461320493665514e-02
5.573520414570682507e-02
5.108755009589572432e-02
5.135642709471755635e-02
5.574092346283577443e-02
4.773066848300367565e-02
4.155388517349863781e-02
4.325936629088316526e-02
5.151220309980204110e-02
3.529590587796352374e-02
4.232732880153137339e-02
5.009000760393550467e-02
3.309209287683353290e-02
4.230125558523824270e-02
5.121332620875672370e-02
3.511765048303738812e-02
4.303896367693267611e-02
4.739371144343956094e-02
5.512827366413571711e-02
4.118083067576097656e-02
5.058931206829236221e-02
5.512331539868657593e-02
6.367301671404104746e-02
6.374956717622667912e-02
6.497538296119638457e-02
5.040190894844522734e-02
6.159425643732115846e-02
6.995497169524272918e-02
7.691977384785179950e-02
7.616091442552186397e-02
7.787246533649337665e-02
6.310979909977169899e-02
7.773833516363465312e-02
7.974760831513171000e-02
8.112191011724034784e-02
7.395245304512829132e-02
6.094530744386368604e-02
7.541001961941903864e-02
6.577681585354999694e-02
7.579074758096239484e-02
7.982978548024825816e-02
8.194598157991875298e-02
8.356209842386685960e-02
8.125511355781653289e-02
8.226995665563380244e-02
8.482941621499531792e-02
8.483604804524781662e-02
8.355752794103314673e-02
7.674543406300869675e-02
9.056891173515042859e-02
6.932334430824677041e-02
5.798751902871551039e-02
5.932133497952341017e-02
8.564501349034707445e-02
8.507778092895482147e-02
8.498317352383369383e-02
8.416911274481669869e-02
8.305226544387576959e-02
8.695556338657381423e-02
8.709289247604090622e-02
9.268811053826271629e-02
1.057887382698924350e-01
8.162648661148043383e-02
9.968552557097103139e-02
6.566520689119789700e-02
3.550482557042959619e-02
8.671154148416283791e-02
8.600926981375463243e-02
9.106420550479830955e-02
1.004570579308041167e-01
1.130023992039975722e-01
1.289241409145248096e-01
1.199329017508900530e-01
8.988636574398531365e-02
1.227581150940221105e-01
6.198082723912176628e-02
9.002691867021250793e-02
1.075766373895453848e-01
9.709262710547092445e-02
1.530729235640626851e-01
1.389146800870552090e-01
1.219568292470211007e-01
1.162465492759562763e-01
1.556250040935791557e-01
1.810690572544127186e-01
1.099985924022602313e-01
1.789665443135058931e-01
1.592860894195593513e-01
1.318973595123683895e-01
8.975312060431936412e-02
2.658150832330219981e-01
3.046395541736955370e-01
1.317508556720523027e-01
2.480734422526136018e-02
1.615521444369220211e-02
1.876121655104772690e-01
3.090728605546159691e-01
2.537480704154586042e-01
1.781204712898286635e-01
1.884557621645901460e-01
2.160700215171782596e-02
1.235943056569147221e-02
1.483889278323094751e-01
1.529817963292193495e-01
9.755721033628093897e-02
8.380400268457369184e-02
6.038152528533351909e-02
3.356676984914478551e-02
4.564794020446009959e-02
1.467067142859567741e-01
1.460586031663119733e-01
1.337331823611586645e-01
3.191722697688299110e-02
1.077080053265662835e-01
7.016981592754026331e-02
4.921681725350848108e-02
1.172858304164862003e-01
1.193236381514547334e-01
1.154897414519545779e-01
5.344705157214384855e-02
9.147444198815779526e-02
7.085143456284613561e-02
1.019586645779303746e-01
1.047313584790275642e-01
1.027026192552900064e-01
7.427225073678203615e-02
8.796255758564437699e-02
9.686073678036083434e-02
9.642654720652858724e-02
9.540486759871372180e-02
8.717062384640218708e-02
9.179039440136251005e-02
9.201212576991711634e-02
9.108138693523389062e-02
9.018034913353703552e-02
9.011313465285535063e-02
8.873717486317053704e-02
8.816660420902892870e-02
8.733231712556838167e-02
8.508195148892587489e-02
8.923139724686693364e-02
7.723155843226556239e-02
8.037811503678489455e-02
7.935030027472445013e-02
7.776588706923984184e-02
7.657247596947619472e-02
8.022501687394775760e-02
7.335239857189400359e-02
7.129022357056051529e-02
6.690725581112531850e-02
6.838625536715560449e-02
7.274633510817880844e-02
5.914440332113017618e-02
6.306545821045712874e-02
6.773876592431948840e-02
7.616536467894724494e-02
7.688267337663659551e-02
5.190865879406511563e-02
7.944947826355650000e-02
7.600727472699940479e-02
5.362797048941560923e-02
5.914774955013689384e-02
6.643391420588978802e-02
9.608185882477697504e-02
9.149027757202389532e-02
8.637448051897435308e-02
8.299691216339249999e-02
8.054714268991843007e-02
1.042873521913155188e-01
1.205203061045853757e-01
5.167701165116038442e-02
5.910115461737377313e-02
6.748085669897845029e-02
1.036524512399071007e-01
9.406720217821250285e-02
9.151451141078054130e-02
8.792071513431667928e-02
8.816374906040239101e-02
9.081335296944517688e-02
9.060443308893781356e-02
1.189433217905036949e-01
1.445453708040910223e-01
1.152930042156649765e-01
1.339104493899910542e-01
1.463739831175713269e-01
1.168851715703411731e-01
1.155305554044797206e-01
1.671407940170306916e-01
1.515833764525235661e-01
1.745681418110099359e-01
1.446605475997324031e-01
1.893675657150243608e-01
6.296871062740298786e-02
9.822175923637349593e-02
6.284847736055684808e-02
7.222404675757498893e-02
6.786885328581050703e-02
7.061521133268086614e-02
7.265551035528908241e-02
7.940527494932125840e-02
7.580449781624513939e-02
7.837305153324893026e-02
5.344607580807307634e-02
1.002986895993396715e-01
9.333883017735403187e-02
9.115228829519636533e-02
9.040241091178780053e-02
9.295737916550861346e-02
1.088107815706290948e-01
1.072675815089928902e-01
1.111475429662287240e-01
8.975472095140292483e-02
8.883502254475668380e-02
7.940434476671551223e-02
8.802918591725522601e-02
2.597938026330054440e-01
2.804665026961838947e-01
5.874713960813397057e-02
6.625306087418526835e-02
7.683845603411722236e-02
9.741903832401717367e-02
9.232098341653349749e-02
1.034704629655385233e-01
8.400714797706403114e-02
8.665681143856178437e-02
8.736018349617934164e-02
8.924442813061385371e-02
7.622696600992359683e-02
9.596660723911740187e-02
9.084594109539785578e-02
8.626199697857400706e-02
4.039698605749678789e-02
7.024288710719700513e-02
3.888559250544393331e-02
3.035178440321723015e-02
1.771830869731162370e-02
4.551642669335084074e-02
5.251050533845560281e-02
4.724776039693522750e-02
5.004563955919457546e-02
3.629802348084306546e-02
7.990714325545319324e-03
2.411270299565078726e-02
4.866532316765924404e-02
4.970300184660501885e-02
4.218800668266801251e-02
4.590051478501942089e-02
3.529167866492753658e-02
2.586431061270911061e-02
5.306368438375642232e-02
8.054930408533544917e-02
6.459775450706033151e-02
5.769352380636247335e-02
4.839287193757588895e-02
4.328836764689759919e-02
3.780706039887577613e-02
5.371807461917880305e-02
5.448172695894332868e-02
5.223956557603035705e-02
4.799576294400935417e-02
4.490429424916968920e-02
5.093508134702424278e-02
5.095034912987890519e-02
4.965657162598183932e-02
4.824378342691701405e-02
4.959104942037915326e-02
5.168980410677937593e-02
4.810851164203828328e-02
4.891627811644002483e-02
4.558069454245299718e-02
4.821108385207300423e-02
4.745297623560525840e-02
4.693931529330372387e-02
4.749417117172711339e-02
4.896720892127855163e-02
4.253078034064018687e-02
4.540543802405008766e-02
1.226745663597293284e-01
2.159669927200331407e-01
9.795027341807122090e-02
6.059023698281559150e-02
4.463367099861160342e-02
4.693984852552061243e-02
4.375492361551752696e-02
9.986184452695438807e-02
8.702945936703622432e-02
8.947300149141206027e-02
6.051998499977261081e-02
7.036792332701988228e-02
3.086830831931665006e-02
7.544859010723337089e-02
3.482918889389081951e-02
5.480413706023812975e-02
4.329234163707523786e-02
4.598313854819782720e-02
4.038287080948500113e-02
5.963598089444968608e-02
8.520499518051014021e-02
7.097551690590615803e-02
7.332024573860375372e-02
4.597007485601891513e-02
4.699315414886576225e-02
4.798917729810576321e-02
4.723741225753184253e-02
4.994486396118426319e-02
4.991673937266278421e-02
4.616979160448549807e-02
4.812757795394519839e-02
4.794148007643908582e-02
4.228837621571542721e-02
4.556333107350074574e-02
4.210927933716981236e-02
4.566957003653077801e-02
4.416304678082159235e-02
4.630135462190251849e-02
4.379316028439227126e-02
4.284344680554864199e-02
4.305008835618440166e-02
3.913157639757770812e-02
5.721984433228656519e-02
6.602169560269717519e-02
7.682084867864241717e-02
4.753186176808871927e-02
4.556256988710522676e-02
5.067823929704912828e-02
4.754078788601511646e-02
4.149108449944979155e-02
3.842481554347546013e-02
3.884304373427438506e-02
3.977007014262529117e-02
5.489373793589667760e-02
4.631856318290523272e-02
4.596111974127160826e-02
1.081553188162065471e-01
9.560319189721283584e-02
9.399810778263424649e-02
1.028353388966454507e-01
9.875747767552864320e-02
9.362301147036439231e-02
8.982691067796913509e-02
8.932124634739796454e-02
2.171802316309036751e+00
2.128731255788605115e+00
2.139093053416741164e+00
2.068748057539110174e+00
1.943396118785208015e+00
1.883412663588692526e+00
1.687780646113900884e+00
1.640553975276492826e+00
1.233646061288310891e+00
1.028368857527458768e+00
8.856142588880053790e-01
1.810388694240627316e+00
1.866034809974039810e+00
1.334526352130160687e+00
1.161666557565804947e+00
1.611984658353378563e+00
6.407118636337950646e-01
7.203988644802093999e-01
1.217221430955831574e+00
1.606886694065669419e+00
1.078213405241864375e+00
9.041855011334964942e-01
1.002163079027488690e+00
1.871210722806410542e+00
1.958126516825590357e+00
2.075013813727465184e+00
2.116479936289715535e+00
2.013964534548910557e+00
1.975606731348719558e+00
1.509599915147963323e+00
1.428863135702672427e+00
1.200003897602934577e+00
1.122697581309217707e+00
9.833809040262618817e-01
9.725166890133609687e-01
8.970438819768571381e-01
2.113037971810534099e+00
2.051880718404263781e+00
1.794747147461579706e+00
1.587855490551341564e+00
5.952516694751619486e-01
5.135080923492789662e-01
5.555138960929586478e-01
6.861372275692082523e-01
6.212693113828061664e-01
7.474911499618395183e-01
1.961673581057815863e+00
1.714330874125933990e+00
1.308351731005316099e+00
1.192101331630771366e+00
9.535639982684934735e-01
1.193241970053637191e+00
9.184670889495623047e-01
2.171764702919997791e+00
2.163433774383056285e+00
2.082939607160164908e+00
1.992264985738395167e+00
1.922636654600872630e+00
1.848186946984606616e+00
1.718082495531354059e+00
1.609152957647120630e+00
1.924048728651602369e+00
1.901181715737477296e+00
1.901051214288211000e+00
1.673915978920184289e+00
1.512452333223483381e+00
1.822404074858617440e+00
1.744949038213026160e+00
1.031641701275755274e+00
8.836729021604281531e-01
7.191378610242975533e-01
7.592477166571307556e-01
7.789004075183829645e-01
7.377269093040353942e-01
8.192209371136173202e-01
1.772993482476917571e+00
1.429334804250281143e+00
1.893125777350294303e+00
1.885848514328992698e+00
1.176501747256925690e+00
1.031454587289032165e+00
1.120534490384564874e+00
1.093376015725006978e+00
1.337098600793466874e+00
1.412100032792647175e+00
1.887789825086121143e+00
1.896291669016193060e+00
9.635866571786666501e-01
9.646395833221850236e-01
9.305594290453290673e-01
8.421579542750720071e-01
8.912375857346929164e-01
9.613899013556381767e-01
9.775937115123640719e-01
1.486076228830834678e+00
1.302757454016478800e+00
1.900049378732229233e+00
1.943665179070594107e+00
1.147882362116522836e+00
1.023706570276326389e+00
6.634886635643921782e-01
6.495114963677611764e-01
7.152068846734561669e-01
7.216527365422512608e-01
8.144383538650834531e-01
7.967036234642469461e-01
5.674078584701939265e-01
5.720090386422235218e-01
5.068919516902470335e-01
4.178621567354409150e-01
1.922109984061461718e+00
2.038851877381588018e+00
1.732397880706364468e+00
3.349898217336741424e-01
3.344455051618960284e-01
3.369670033026136435e-01
3.295207137699173172e-01
3.573999070063603734e-01
1.487887821109358910e+00
1.354529001587620574e+00
2.103865026132795801e+00
2.060882762658319045e+00
1.877763072591666749e+00
2.109956690511550992e+00
3.167169285276628665e-01
3.580908126690753868e-01
2.942490566363848981e-01
4.755259047145565798e-01
1.191119095005551909e+00
9.428397808403686797e-01
2.955858891583301729e-01
5.370589914756069838e-01
4.132607639964948065e-01
1.820495871670646748e+00
1.721510684407057790e+00
3.519759134782488030e-01
8.216359752835864505e-01
1.436246037874142178e+00
1.379370728117428557e+00
1.120894645000206413e+00
1.137677423985415270e+00
7.475653268691639930e-01
8.154087755251888670e-01
8.197877169833297506e-01
1.005424163541037252e+00
7.046543332175833063e-01
6.347027567234067025e-01
1.675811536530984192e-01
2.505669558293457250e-02
2.201012933796147042e-01
6.357347643418587158e-01
8.053378949823211119e-01
7.417798799392764098e-01
9.788476868070598025e-01
2.622412241268292088e-01
2.996306143483747908e-01
1.107950898036490717e+00
1.475327916642244830e+00
2.503744523856379356e-01
1.907657845128536978e-01
1.754378243292300965e+00
1.801434142666900717e+00
1.406147879437448789e-01
1.581693687401483986e-02
1.891114123501834943e+00
1.964186718344343774e+00
2.015249258595625648e+00
2.119105190089425772e+00
2.161016444874404918e+00
2.123366643560092637e+00
1.872199343994386034e+00
1.751896392283244452e+00
1.441089146869051651e+00
1.343968046354107271e+00
1.140192963256279279e+00
9.995496597585302734e-01
7.267898876634393268e-01
8.733620136712260118e-01
6.687011812222212193e-01
6.704644386921940757e-01
6.327428741874920881e-01
7.212469359203865782e-01
7.587671796829432713e-01
8.651198774087682786e-01
1.041783176427693025e+00
1.301232760450604875e+00
1.698190962801321424e+00
1.675483524627661147e+00
1.877497138449962133e+00
1.921643117291764069e+00
2.069185873969617173e+00
2.116865349441229949e+00
2.185296855635443514e+00
2.148419829031940065e+00
1.982693931192491377e+00
1.893245759070470768e+00
1.620191734936250905e+00
1.533109590739412775e+00
1.308103743872777613e+00
1.260028478078149883e+00
1.118736355606347654e+00
1.009169975359307303e+00
8.717503304559885979e-01
8.699220533824186807e-01
7.445586627613967057e-01
6.362487064904805978e-01
7.183198253855365145e-01
8.144536713251890880e-01
8.574447715786134294e-01
8.726877452383244860e-01
1.058327289956504824e+00
1.133303474750491979e+00
1.481991127024860466e+00
1.064183938364700488e+00
9.134224815991863755e-01
1.239307792330422542e+00
1.581293835036813089e+00
1.985548273238002093e+00
1.538964867082576626e+00
1.836381386863463305e+00
1.872427339464866503e+00
2.120410562025683010e+00
2.147699908207343800e+00
2.082607603035318444e+00
2.022042168922266292e+00
1.965743341053670878e+00
2.119150165882798031e+00
8.284082925846631973e-01
7.837292708680121400e-01
6.251519312901319125e-01
2.206765226529858737e+00
1.942925686862665868e+00
1.770495962201689144e+00
2.203718221403572208e+00
2.028876281014318828e+00
1.833727663763254023e+00
4.889727383966476215e-01
3.954829870899710387e-01
5.139440589442373364e-01
3.663774290731909855e-01
4.180553301043294923e-01
1.589103519960924915e+00
2.016460025295899960e+00
1.529669631745556702e+00
7.852509919876359268e-01
1.875808521289612063e+00
1.464953477434615348e+00
1.280174561230420227e-01
3.787992198173152358e-01
4.050757601893805737e-01
4.484095381126276258e-01
1.316200660932949518e+00
1.065808141719336799e+00
8.643259793920415879e-01
2.171659762934862403e+00
2.059597379355469826e+00
1.996211774884752321e+00
1.273823314127214168e+00
1.319088579043426357e+00
9.809919544260385926e-01
8.378185826198413233e-01
7.103214335076051267e-01
6.843785441266717617e-01
6.430002414737960859e-01
1.395716109655263937e+00
1.208559852950216396e+00
1.982612161357987901e+00
1.537078927202592205e+00
1.320942785838856715e+00
1.226321559303735764e+00
3.269832006468655905e-01
5.414919848266315228e-01
7.020625870106572686e-01
5.573748501837881841e-01
5.455040635925132442e-01
6.640320998294860777e-01
5.850235832768166944e-01
1.113907153893069157e+00
7.911027531097034604e-01
1.102993868524415388e+00
8.876575744343163654e-01
7.650736868202817620e-01
6.969136681594536586e-01
5.510253668717887132e-01
5.729748414463633477e-01
1.168316055671320797e+00
1.031696136579627332e+00
9.660959169744145481e-01
7.603338321558422708e-01
2.148390485417568385e+00
2.110565177759015754e+00
2.087217075405231270e+00
1.878333777595305509e+00
1.790505027538411564e+00
1.387581578376229308e+00
2.194475358450058255e+00
1.832265231064461819e+00
1.494079135394266400e+00
1.365696177193650884e+00
1.216032573274403950e+00
1.138815691727852908e+00
1.122915348240347555e+00
7.141714677179626936e-01
4.846195796194254779e-01
5.954595846588359720e-01
7.197721943593383687e-01
6.453527105433781719e-01
6.974947801063914321e-01
6.234773509480443510e-01
3.880995707410900275e-01
8.005272146080572027e-01
9.155302200161963277e-01
7.387639108782577679e-01
7.501338579077295732e-01
6.526241156577780034e-01
4.577410262652447659e-01
9.852775579989128119e-01
8.722054391902962500e-01
5.500031589795670861e-01
5.509958548416027391e-01
7.436252962931965138e-01
4.474305565015645469e-01
5.174674447488512019e-01
2.216053879814210426e+00
2.063756542761739254e+00
1.925361099622008298e+00
1.960765684886964122e+00
1.906737276123040337e+00
1.275458584969510811e+00
1.115551222528475606e+00
7.494429552122853222e-01
1.703531414894981832e+00
1.548770724565398993e+00
1.301535064031137612e+00
1.078080769175587150e+00
1.013207899403915535e+00
9.091528216485880165e-01
6.153324315448102100e-01
7.311874720339730516e-01
6.183955179763181986e-01
5.754405479918279775e-01
6.225088554391852158e-01
6.508108668047009049e-01
7.613239387733786723e-01
6.545401862652500125e-01
6.444389617907919643e-01
2.554532173135182216e-01
8.035652724367620126e-01
6.858287823613635759e-01
6.565950468996910594e-01
5.809069537862510124e-01
8.632730933752407187e-01
7.498011512703445236e-01
2.484920621581656330e-01
5.058873069579057358e-01
1.890029871857260346e+00
6.006676223191947939e-01
9.070977335185306245e-01
6.903634768261126542e-01
5.929439988819931173e-01
9.753659710628929114e-01
1.438733008081399145e+00
1.138771642049928090e+00
1.253274731674585363e+00
1.892209948038455325e+00
1.048055935531143401e+00
9.471581827644022233e-01
8.598575143229757467e-01
7.832334008441468320e-01
7.321127888021066177e-01
6.756084360961823743e-01
6.366144114785279307e-01
6.350708691558407670e-01
6.098226969931467289e-01
5.751665843971439651e-01
6.369180665038408629e-01
5.539981863281652208e-01
6.145486536990153459e-01
5.637367657402257981e-01
5.517207219463271528e-01
6.748067159323836162e-01
6.094201749976529969e-01
5.084313677649752172e-01
6.099378551434945228e-01
4.716182120225369534e-01
3.171047983553433869e-01
8.226484351936431683e-01
7.693640995181789677e-01
6.789741286795099029e-01
5.596254026381580760e-01
8.002516598181812491e-01
8.773418392653120623e-01
9.410786824014231167e-01
1.165713147539426675e+00
1.045953722737488656e+00
1.355328770058376486e+00
8.955379622237032988e-01
8.273576008965486395e-01
7.731079697846243715e-01
6.936610889415021353e-01
6.136051351517863850e-01
6.024138771017378824e-01
5.949889757760045139e-01
6.089798449924983537e-01
5.853719483707803262e-01
5.465652031773725605e-01
5.694958945463635125e-01
5.426065822766654723e-01
5.988211634051531229e-01
5.705063465140383094e-01
6.347239989310717867e-01
6.435778660184102717e-01
4.374340417254574676e-01
4.065918974369228112e-01
4.059436362916324370e-01
7.534962662117291599e-01
6.235402991214549218e-01
4.509387378202693308e-01
8.028418592670852894e-01
8.536072817225830445e-01
9.871017508780821625e-01
1.085683697710769113e+00
7.620828243522608236e-01
6.995044748920892230e-01
6.016498522890724177e-01
5.862429157475816943e-01
5.725747551539611679e-01
5.686681092623134814e-01
5.498541427277274796e-01
5.512312399169803090e-01
5.624758140830194986e-01
5.487694524057807888e-01
6.462946151469789458e-01
6.033659948033183174e-01
3.938128754693228095e-01
3.963209228595546141e-01
4.178511901844169651e-01
5.995586329126928460e-01
4.389045298888419322e-01
6.730005403811181175e-01
7.495974428342361273e-01
5.493159397957065870e-01
5.985341798406531577e-01
7.899974101431808116e-01
6.333278677413246571e-01
6.073829419067188207e-01
5.947895926157302782e-01
5.582782037336653236e-01
5.408535514663701527e-01
5.465295891210381063e-01
5.442807528217421531e-01
5.377037744256601970e-01
5.386552807919723351e-01
5.326013600262610170e-01
6.083648551789034853e-01
5.899589488740328846e-01
4.215522393816742430e-01
4.206446355132196779e-01
4.164453146414410778e-01
4.667950108890687178e-01
5.276956953456988231e-01
4.696439375918954329e-01
4.755339610648418036e-01
4.887396205141227856e-01
4.630633188111132892e-01
4.732325536099469265e-01
4.689194748789438094e-01
5.174002484677828750e-01
4.879758546198234015e-01
5.295217716700963972e-01
5.469757720817864932e-01
5.957069266293371079e-01
5.885715648006478729e-01
5.152698131988644459e-01
5.057408095442104123e-01
5.277955963178830867e-01
4.599300285268992372e-01
4.729293375146549905e-01
3.557100895310244537e-01
3.955345440169786841e-01
4.024579264692378366e-01
3.685105499637452708e-01
3.942003674173146788e-01
3.776003861051724364e-01
4.027104039221605092e-01
3.812706500853513814e-01
3.943753889766538068e-01
3.826807537487160737e-01
3.873220458872225769e-01
4.026019324169834990e-01
5.310129631011299978e-01
5.206949004269683101e-01
5.169268361086748476e-01
5.821438089190631437e-01
5.740908582238509750e-01
4.568363411829551857e-01
4.287880657518478578e-01
4.251635908870005642e-01
4.446582349448593985e-01
4.590577757240389412e-01
4.692013781767328529e-01
4.433693597723116220e-01
4.794277713755472070e-01
4.927846392804040021e-01
4.341621433980487610e-01
4.399893698225024741e-01
5.695408757617744788e-01
5.570925093362389946e-01
4.857818174388534582e-01
4.674395930669978383e-01
4.916286851284965564e-01
2.067706243279197054e+00
1.738244089301876683e+00
4.363639272973890426e-01
4.497251807790431100e-01
4.301485390574904533e-01
4.126737723074678788e-01
4.156831738287758982e-01
3.960951122949067371e-01
3.917078885223667095e-01
4.059548223803519651e-01
3.389015617105717304e-01
3.635885830266013530e-01
3.581237527946642407e-01
3.806135540407301066e-01
3.649102731511595921e-01
3.729441241364521709e-01
5.101542724163158349e-01
4.978969222841032050e-01
4.929000213993344204e-01
5.587019085504040250e-01
5.424458209292617461e-01
4.240688778940875370e-01
4.013330514435399232e-01
4.433663067350026576e-01
4.224166891579261840e-01
4.316120338109765142e-01
4.364184347477506609e-01