<?xml version="1.0" encoding="UTF-8"?>
<VTKFile type="UnstructuredGrid" version="0.1" byte_order="LittleEndian">
<UnstructuredGrid>
<Piece NumberOfPoints="5313" NumberOfCells="8293">
<PointData>
<DataArray type="Float64" Name="Temperature_@_t" Format="ascii">
2.228759404345329108e-04
2.175191767742160629e-04
1.356328787367504164e-04
2.258100925063579963e-04
1.392002431677714501e-04
1.581765825043306031e-04
2.250911282462355343e-04
1.452803686852892936e-04
2.175380694871899040e-04
5.610798835652255900e-02
6.629094770975045570e-02
3.929832595903100245e-02
5.201503741900807137e-02
6.533496205096236964e-02
3.762208096348228226e-02
4.370447302877106255e-02
5.825283336915219184e-02
3.597381719180386961e-02
1.080425522495152973e-01
1.680055015003408259e-01
1.309267020558768646e-01
1.974866667121489561e-01
1.948364557195086666e-01
2.218435307169009940e-01
1.792433278244786321e-01
1.749768275017074270e-01
8.647752630670056673e-02
9.135329949488965595e-02
9.358060101477388981e-02
9.283965129217640333e-02
1.121943196954756777e-01
8.900344801357970570e-02
9.317513592917325838e-02
9.671808377870168283e-02
1.033537455231394869e-01
9.718999535861254369e-02
1.027608492374537247e-01
1.109725641744866431e-01
1.119255274548469348e-01
1.199152837509994962e-01
1.209302620912960369e-01
1.302232263386473854e-01
2.192671494634436113e-01
2.552939693190795500e-01
1.299408619546271737e-01
1.421648331912975793e-01
1.436801139182150577e-01
1.565716587915045865e-01
1.571146880045213301e-01
2.583543771419113400e-01
3.550638016207369185e-01
8.945450130291579538e-02
1.085035686115062831e-04
6.705188219984429653e-05
2.928431845262373024e-05
9.648297757741338982e-05
7.339586157437846017e-07
3.093566743889478946e-05
1.093683295146026161e-04
1.695824595995590323e-01
2.530656736115447503e-01
2.424157361329326021e-01
1.563809831466614064e-01
4.582780765476868190e-02
3.078736359408043924e-02
1.252913377956752783e-01
1.471535019996662308e-01
1.537570958617167916e-01
1.391510554684017298e-01
1.307430581889542642e-01
4.502250838640848435e-02
1.087215005501265125e-01
9.934265690135983540e-02
7.576015833474292194e-02
6.000340853318041762e-02
3.494302372485809383e-02
1.200568999264984144e-01
1.142546860583014273e-01
1.129557972590713721e-01
1.153145116735592168e-01
5.360224580923757948e-02
8.423256653451695330e-02
6.833141066611377046e-02
1.048953494190262570e-01
5.525757344947083288e-02
1.114721897309709081e-01
1.029820742538744838e-01
9.640668574751491693e-02
6.727072287042135113e-02
7.933495093580435198e-02
9.595202712354089503e-02
6.956044507527435472e-02
1.011961968638104559e-01
9.538486177253681364e-02
8.633832767401189434e-02
7.765123924169631264e-02
8.953203367644041455e-02
7.895636334456601624e-02
9.363366209590837097e-02
8.993095441675860724e-02
8.402784047371754383e-02
8.735624490478564874e-02
8.345016222020523733e-02
8.880002503258419000e-02
8.682205915279217479e-02
8.505878908731231980e-02
8.421395658830306552e-02
8.579873655932999943e-02
8.504458942735068638e-02
8.368752563602221972e-02
8.287040914825578863e-02
8.362160499842895278e-02
8.186440060563413001e-02
8.050776334258533118e-02
8.149259292806751431e-02
7.946020664266602307e-02
7.745799287902681296e-02
7.904555778247690512e-02
7.670492802088305084e-02
7.383820164471208147e-02
7.461233738807930560e-02
7.609639238479297407e-02
7.265538876442520499e-02
7.004075354341463000e-02
6.563680147803391263e-02
6.906272286149960082e-02
6.683658459923966233e-02
5.607011589797227663e-02
4.870264854792900194e-02
4.384598167430721338e-02
5.386391874136284286e-02
4.261653730928265105e-02
3.839400435791995997e-02
3.558168563692110792e-02
2.815078849535404548e-02
2.604198573948952530e-02
2.960138162686086136e-02
2.527590660773922429e-02
1.988229170367244308e-02
4.898353355257123454e-02
1.898424824056903562e-02
1.590962085402053763e-02
1.439719764610822988e-02
4.166836874310440864e-02
3.464484644010834558e-02
2.287628072859658815e-02
2.981313929590182973e-02
2.410365310412480866e-02
1.950227618453202402e-02
1.570771864439683349e-02
3.849567152267992926e-02
3.028899903233919777e-02
2.949309443277218015e-02
2.570681346623973976e-02
2.243666542679166945e-02
1.963822835025113081e-02
3.759227971850222227e-02
3.152015476972774843e-02
2.904656114221296562e-02
2.631979732209937389e-02
2.559404104062459190e-02
3.819194147786009880e-02
3.264548217945732050e-02
2.883994263464805322e-02
2.762273458451488736e-02
4.100783318008932588e-02
3.481975646632799737e-02
3.774784485619857299e-02
4.199768464208121499e-02
4.810695201644555469e-02
4.786300872339162987e-02
5.291813443234643505e-02
4.305820456638984051e-02
5.509764312809116438e-02
6.604287842922451635e-02
6.664882120358514572e-02
6.798377018040931141e-02
6.459700477404302366e-02
6.923910904216475093e-02
7.209081839214798171e-02
7.525380996666258815e-02
7.585607665706083080e-02
7.735716092304198432e-02
7.907647073871222621e-02
7.339339345855303010e-02
7.735215182116265964e-02
7.979413533842087680e-02
8.171037571437947400e-02
8.444614361383150081e-02
8.484582623416236924e-02
8.371599347158700799e-02
8.070471109011848054e-02
8.276485821775800278e-02
8.486940036787229968e-02
8.556779926584892615e-02
8.447525898338684169e-02
8.347663101202065783e-02
8.613708899636748906e-02
8.476923124745915084e-02
8.730112002917281289e-02
8.713514282933257360e-02
8.178359422051316441e-02
8.140100994182140892e-02
8.987426688683193554e-02
8.681734027003545906e-02
9.102248671012205805e-02
7.595973581097778538e-02
8.363884288790333910e-02
7.469973365170683166e-02
9.633953320867109926e-02
9.141454887959528375e-02
9.920574864913783708e-02
8.859198519682305595e-02
6.660741141456433256e-02
7.701979510750024682e-02
6.527648347343840973e-02
1.063968337005394421e-01
1.104035871187006440e-01
1.021582435268633127e-01
1.187511026407745557e-01
8.225842430225871471e-02
9.613320737661774917e-02
5.266691412017859841e-02
6.695209409920452326e-02
5.457718498922767975e-02
1.179991127444858373e-01
1.244778084616390279e-01
1.454173511237201455e-01
7.226697675981327840e-02
1.171906747189897097e-01
9.384639330379304645e-02
3.564499156458479645e-02
5.394626373061536112e-02
1.069971987247117784e-01
1.417829014959861855e-01
6.021612072735930271e-02
1.695835004874828300e-01
1.872353154259837060e-01
1.616191484221647101e-01
8.185235739485509365e-02
1.184613626533029956e-01
3.841692491260632891e-02
1.424405150735691405e-01
5.982951553161249686e-02
3.070380235549007297e-01
2.631300962758862383e-01
1.726853287756604793e-01
1.021736041992821753e-01
1.638687315983863579e-01
2.537746984707031084e-01
2.493453935608027361e-01
4.162371092698821662e-02
2.734894570035434347e-02
3.836293643817553778e-02
1.421750013304153570e-01
1.472258602088734047e-01
7.077276937316269445e-02
9.373178054649942970e-02
1.042894268748912751e-01
1.353402479472359532e-01
1.695941704698292474e-01
1.374143872253430487e-01
2.594870985636531235e-02
5.394490055760650660e-02
4.468308692447214847e-02
1.072075714404367441e-01
7.801901528042104461e-02
1.154042164805839377e-01
1.232717710334728101e-01
1.161855119594923796e-01
4.945555884880444703e-02
9.984816804115081990e-02
6.353046567019950130e-02
8.530661099440246808e-02
1.029460754049714988e-01
1.134505560385652423e-01
1.039010369630520986e-01
6.799964183108189730e-02
9.169958244218062715e-02
7.980192244801996571e-02
9.570516742438799074e-02
1.019482570290140971e-01
9.663229012885034275e-02
8.146471909480929030e-02
8.853396264186695619e-02
9.282582248732536290e-02
9.505691258656352727e-02
9.240033141930203975e-02
8.799132741525932111e-02
9.018555345092360565e-02
8.987170871636825098e-02
9.099882846096368771e-02
8.897681631569598348e-02
8.790978571874936975e-02
8.808348325975955129e-02
8.706109572145673270e-02
8.597223499974278316e-02
8.518131762257154238e-02
8.367836667438308118e-02
8.376543067834964218e-02
8.155862481099079853e-02
8.172718047573075684e-02
7.976906973852948557e-02
7.942581586622417256e-02
8.044539547613920039e-02
7.525825757135416738e-02
6.609310129288667457e-02
6.817508270065694709e-02
6.620157869037893161e-02
6.411367452092196773e-02
6.634425942371766083e-02
5.712120677325709106e-02
5.235362474957588191e-02
5.261357577722398926e-02
5.710270971344323654e-02
4.888442644839182533e-02
4.255957913545100474e-02
4.429627651702296859e-02
5.274429579142100172e-02
3.613745415135340838e-02
4.332909170438409979e-02
5.126573151253102645e-02
3.387021446835656452e-02
4.328839202454046881e-02
5.239319462265925459e-02
3.593203847418307423e-02
4.403113040110297888e-02
4.847679503147298008e-02
5.637351523117409280e-02
4.212187798880679540e-02
5.173342555972402362e-02
5.635400723336660839e-02
6.508010118586061987e-02
6.514618274616246207e-02
6.639343686000181988e-02
5.153130495631509655e-02
6.295361868729745791e-02
7.147380068257291885e-02
7.858266442361686033e-02
7.780447769972868854e-02
7.954731811953980047e-02
6.448669684170128813e-02
7.941397294703289589e-02
8.146661551910305832e-02
8.287054160048987206e-02
7.598028187409497369e-02
6.285657412167636182e-02
7.738664070494463698e-02
6.787632408389525362e-02
7.742705583291677185e-02
8.155172285120448894e-02
8.371456248974976089e-02
8.536322178445701625e-02
8.320447921742986364e-02
8.410129111096879828e-02
8.674632598579554155e-02
8.686161073860432236e-02
8.557177186105967281e-02
7.888127675642928049e-02
9.264573930540184743e-02
7.155733683954183799e-02
6.009942671596436858e-02
6.149648969258796755e-02
8.755572719744406096e-02
8.692015918827435128e-02
8.683521403763662383e-02
8.598863490472129223e-02
8.484551820369626296e-02
8.888556890493649887e-02
8.899355250441018383e-02
9.461346844074543239e-02
1.076640760033771710e-01
8.394340818042352048e-02
1.018829642369010191e-01
6.814548496415202827e-02
3.711962961042856307e-02
8.858094303040016382e-02
8.785681866538370965e-02
9.293562576762190441e-02
1.022315750928729783e-01
1.144855164133502246e-01
1.304464343836432560e-01
1.219261249078849030e-01
9.246712277641970512e-02
1.251285894962046730e-01
6.531546101635829493e-02
9.189420875145061507e-02
1.091258742170998081e-01
9.889904800136685437e-02
1.543922562218370265e-01
1.400026746000092304e-01
1.230518020457278677e-01
1.173470110628413166e-01
1.573586547259518964e-01
1.823082110197758732e-01
1.132223510556283202e-01
1.808574645505449108e-01
1.601366784535351862e-01
1.325709434827548605e-01
9.025620121716319832e-02
2.684762891383424277e-01
3.035597049247828472e-01
1.320656498399190026e-01
3.211194434994690816e-02
2.166313096717262937e-02
1.443600619177031197e-01
2.102749836096717007e-01
1.974530909372567977e-01
1.377663947830437829e-01
1.427303036445013995e-01
2.668424281962915312e-02
1.540319319336535923e-02
1.192875792433567284e-01
1.190114275792775872e-01
8.630089290825576631e-02
7.645095141028541985e-02
6.222647800347628350e-02
3.888234627602844828e-02
5.017620609666111758e-02
1.182836223561438277e-01
1.169588493693681924e-01
1.080285209905271215e-01
3.626006890303518776e-02
9.304315558816031451e-02
6.770329582044826155e-02
5.160186918782833781e-02
9.886486760493963522e-02
9.958170096014608286e-02
9.680082703404351008e-02
5.462928043554429042e-02
8.185357365731896206e-02
6.752986613835844365e-02
8.841155359491360832e-02
8.984128895883514154e-02
8.825099243911820046e-02
6.973724014323968989e-02
7.894996325471390075e-02
8.463889896731353890e-02
8.402525380913261621e-02
8.316637506056762108e-02
7.819214043106101353e-02
8.090571277509385484e-02
8.065164330330679143e-02
7.983784690995164579e-02
7.955440578295244758e-02
7.922816539514782042e-02
7.795222746253101243e-02
7.744842341135499408e-02
7.678570803803333455e-02
7.478709458439455893e-02
7.844335357465366532e-02
6.790507605831690163e-02
7.068152664682071651e-02
6.979038550356110593e-02
6.840349735577268275e-02
6.736185813253695032e-02
7.058285996424319697e-02
6.453768693726948114e-02
6.272903985338068589e-02
5.887127971207413435e-02
6.017493506119649810e-02
6.401198816800302005e-02
5.204503593194974298e-02
5.548940455700818869e-02
5.959526731731656229e-02
6.178723089445339184e-02
6.249490982102536007e-02
3.940246984877337350e-02
6.451075761014699039e-02
5.835712670644738892e-02
4.718111401744758127e-02
5.202770464112269067e-02
5.842397028959497168e-02
8.084985267103743378e-02
7.715898698686765589e-02
7.230363915572883549e-02
6.937779095099171067e-02
6.761023025741055847e-02
8.762858890916136456e-02
1.062117045304604851e-01
4.544872583839122682e-02
5.196097721143039944e-02
5.931022699418041222e-02
9.025143014494174665e-02
8.042780276854596955e-02
7.839439013206334073e-02
7.501887308081868488e-02
7.545069344170154957e-02
7.850500406785326790e-02
7.841823439835522713e-02
1.195463610493948531e-01
1.419998629565617787e-01
1.124603260644837927e-01
1.271560603036276937e-01
1.361191899593999499e-01
1.060234508838344553e-01
1.084898756857931718e-01
1.615230266557990124e-01
1.518803892857902016e-01
1.733022959498260185e-01
1.283583082596520542e-01
1.825312584127562754e-01
6.386939873894725839e-02
1.025092969378315344e-01
5.521857886546095023e-02
6.342820209989954994e-02
5.958827829474141330e-02
6.198101931301592399e-02
6.374813971317928873e-02
6.965312863129581589e-02
6.646768392908754264e-02
6.868383296447579112e-02
4.698100217867841322e-02
8.798655863092411100e-02
8.093870299856104067e-02
7.937751708320922583e-02
7.880214740024986397e-02
8.102864985018282118e-02
1.057394192281548573e-01
9.696635902831654552e-02
1.031658333650262160e-01
7.835926652141493587e-02
7.755864900063547118e-02
6.956306729549224799e-02
7.707116761501746349e-02
2.527392707048481957e-01
2.930271549350805249e-01
5.160542760790997469e-02
5.813410558788519034e-02
6.735429035924254959e-02
8.584775253309955001e-02
8.077872097305328902e-02
9.287664399062688092e-02
7.351675504041210729e-02
7.578155497205460445e-02
7.637753062711814811e-02
7.802702049455687017e-02
6.674758415993754801e-02
8.454960894112216463e-02
7.952506729722538803e-02
7.545696509668216312e-02
2.605536085600547447e-02
4.172306246455860512e-02
2.222512544214287969e-02
1.950488376053659267e-02
1.119299982447898023e-02
3.159135650695966968e-02
3.657879789049650610e-02
3.829647099281886097e-02
4.369056271547280823e-02
2.511806349960597068e-02
5.254564902284081414e-03
1.618679586055557854e-02
4.767979800841479210e-02
5.876455323039764256e-02
3.309246946459021288e-02
4.070076729269469368e-02
2.641349333753299777e-02
1.801360863828337100e-02
6.177719373657589164e-02
1.299126938304698553e-01
8.446723849215412305e-02
7.149902641140855331e-02
4.860085822356793872e-02
3.800804750372750035e-02
3.001635830310632816e-02
6.517125328075369650e-02
6.491349803327146895e-02
5.887739284516088634e-02
4.913151547101345107e-02
4.193104040061146343e-02
5.899404073074689114e-02
5.917844846961505673e-02
5.558904729543320128e-02
5.110272609111732312e-02
5.693250861018257086e-02
5.934895874453108289e-02
5.483389909694671993e-02
5.607607844767741739e-02
5.119312180670031881e-02
5.524137381870698055e-02
5.412783918559022772e-02
5.371153742227000039e-02
5.439748190544668044e-02
5.607349525239339882e-02
4.865955538301617450e-02
5.197725896733888795e-02
1.128889153633730602e-01
1.794293825835649447e-01
8.827239828537666866e-02
5.145576792576061348e-02
5.110003940269843697e-02
5.374637941866027002e-02
5.007892884862762128e-02
9.310201924998584566e-02
9.575092356317374542e-02
9.250144408156675546e-02
7.072904445146341312e-02
7.751155006343543596e-02
2.636240093591187342e-02
6.861537901053879618e-02
4.396863404309958590e-02
6.323699008547929712e-02
4.957590280963616175e-02
5.267082392458109080e-02
4.622840385450751460e-02
6.672906967994744754e-02
8.331226888688897381e-02
7.540179728320878239e-02
6.793867075767652530e-02
5.279679889210210642e-02
5.400607477294791514e-02
5.512925928600950765e-02
5.427112290625758090e-02
5.742987314200796722e-02
5.774198428417547796e-02
5.373637136799689490e-02
5.538160781969524160e-02
5.525194074953844459e-02
4.844933905464186147e-02
5.222232349341281860e-02
4.827651740350298593e-02
5.238391010296199191e-02
5.069926499667139902e-02
5.315132974020714274e-02
5.027369801253050996e-02
4.915448582089825685e-02
4.941165446862628985e-02
4.481341272982982543e-02
6.380798450143157496e-02
7.083605127058720252e-02
7.712992828589923522e-02
5.458421341584324127e-02
5.230525729035546273e-02
5.764177418791635588e-02
5.442629164490811466e-02
4.762354225564448262e-02
4.402948557025291448e-02
4.454030546878109953e-02
4.563519724477380080e-02
6.148091539246594572e-02
5.309570615390884346e-02
5.242606926398180739e-02
2.030728833221848439e-01
1.753007763348311820e-01
1.658950348029839539e-01
9.608745098106910576e-02
1.049235032236598975e-01
1.163152515868234871e-01
1.309215561168993458e-01
1.494710099260540270e-01
2.166187667119042093e+00
2.089107889904433968e+00
2.154656377612411244e+00
2.103828727551769973e+00
2.022826957560882821e+00
1.986225961110373639e+00
1.884994142483004342e+00
1.861240106395516403e+00
1.566290648882927572e+00
1.327767656496046111e+00
1.028436555781683470e+00
1.704827990398927184e+00
1.785194232556933658e+00
1.624247263423722387e+00
1.514121290291194466e+00
1.849543359621217409e+00
7.787857989933456571e-01
8.068748195056053563e-01
1.062002233090302727e+00
1.391161208907811142e+00
9.720901978107626684e-01
8.860437907063286600e-01
8.592761915441512466e-01
1.729605092310426695e+00
1.850982087584450708e+00
2.100126752054431556e+00
2.148004376888959843e+00
2.000869441444689922e+00
1.915540371991521829e+00
1.413932582065938304e+00
1.325550300040758467e+00
1.131263986321304538e+00
1.070959610978295729e+00
9.535958815533408517e-01
9.199908033728566581e-01
8.586089749184242503e-01
2.171344572222158043e+00
2.124371248773350374e+00
1.886101161366017243e+00
1.699499730801569575e+00
7.128597520996661219e-01
6.256167068799847186e-01
6.726688059586127810e-01
7.165869443659611537e-01
7.169355335659562956e-01
7.671704228439214512e-01
1.856464512482975726e+00
1.543780488811308249e+00
1.403320734496934286e+00
1.286086545933287750e+00
1.028910521911788889e+00
1.423524574044792823e+00
9.699468133954003424e-01
2.144386764948912116e+00
2.101431190494351231e+00
2.076617426020840096e+00
2.012870185085951391e+00
1.971851047676653979e+00
1.933426856360003887e+00
1.867210806368168718e+00
1.785051073196932014e+00
1.837668921541752987e+00
1.849886690065570827e+00
1.744414473434386270e+00
1.467046731067379595e+00
1.277575513931176188e+00
1.698794396658191763e+00
1.594858926770249763e+00
1.108666302824802052e+00
1.048927703066860895e+00
8.679267817215334802e-01
8.935583181417009468e-01
9.223658031419800230e-01
8.653719413630116541e-01
9.462520574534264428e-01
1.904339474768906637e+00
1.630761502807915875e+00
1.872274719319000580e+00
1.905215524609841005e+00
9.928756259804736306e-01
9.274532662130209326e-01
1.020727260074400400e+00
9.808310275242931864e-01
1.195659949428222069e+00
1.278893871953277861e+00
1.917162262658082650e+00
1.967339260332863660e+00
8.230737722038207194e-01
8.375043555032489762e-01
8.251541450772671427e-01
7.934317950218403581e-01
8.259608533176251433e-01
8.668151934666675773e-01
8.995747128937580106e-01
1.630026130477847168e+00
1.453358536523140287e+00
2.022676664856293272e+00
2.059335591190766479e+00
1.284923684574655223e+00
1.114331437591754570e+00
6.750884139373410919e-01
6.466881415097912589e-01
7.459427236542754969e-01
7.758184942416589402e-01
8.891854378901106193e-01
9.278736015515043345e-01
5.906634766558568339e-01
5.608667078149851548e-01
5.218501368072780977e-01
4.184851035308850831e-01
1.996463352036143224e+00
2.080679674889071240e+00
1.876981534325450118e+00
3.421059831940598817e-01
4.149760447305620992e-01
3.282074297006720709e-01
2.954251157873059030e-01
3.352748325247838501e-01
1.723303167503723143e+00
1.644570856510311652e+00
2.093367198545009522e+00
2.030245131164603478e+00
1.964479779665836867e+00
2.134755480045146925e+00
2.756159705658453030e-01
3.406004095484683192e-01
2.848554188464491044e-01
3.811302479036871027e-01
1.537126275027634659e+00
1.374458590200171360e+00
5.033317976167547281e-01
7.860157632583492093e-01
5.034801288270454034e-01
1.741236166002720243e+00
1.603613746853001842e+00
2.775277434900569329e-01
1.273022633568557715e+00
1.311885547080907877e+00
1.225251826424976098e+00
8.496019517601045568e-01
1.025713975342826600e+00
5.672140415458974960e-01
6.305566584727840818e-01
6.092112632475572553e-01
7.654884056290485184e-01
5.744398182519889762e-01
5.387231805530879880e-01
1.554924866312286935e-01
2.533913568205943892e-02
2.039027509425610230e-01
5.267231170357240533e-01
6.542478884068050338e-01
6.058169812622397066e-01
8.555516025670267810e-01
2.418526100893579334e-01
2.754801568657391231e-01
9.311450936691538782e-01
1.274792840002022754e+00
2.295097724618422874e-01
1.738648482693962438e-01
1.593119016463551363e+00
1.656602851209253435e+00
1.285721538266836883e-01
1.663502837746090243e-02
1.789711678671508821e+00
1.896905721940748801e+00
1.974061956770620352e+00
2.111215298402289609e+00
2.186445170318543685e+00
2.153693805020759466e+00
1.933274993190772895e+00
1.829523344366623894e+00
1.529015266370449488e+00
1.436048776487530487e+00
1.216706180937922266e+00
1.140025912429520671e+00
8.948143983867168361e-01
9.908443792686819629e-01
7.791235562158838057e-01
8.107226162066454300e-01
7.298050583232105204e-01
7.978756291770895404e-01
7.752344782220641495e-01
9.345811277935724970e-01
1.025440653832072613e+00
1.316823410763062974e+00
1.716699259835273939e+00
1.694382171597109910e+00
1.900619830317212378e+00
1.943789106663346367e+00
2.093258789963118538e+00
2.141019293782941091e+00
2.205492342733499367e+00
2.168399994427881783e+00
1.993014271105596258e+00
1.895008118103961525e+00
1.620454196261073010e+00
1.524367125258074385e+00
1.303245018709986880e+00
1.241850098845998840e+00
1.086332930418351550e+00
1.009248755596991121e+00
9.178063591736080884e-01
8.632448219083171947e-01
8.389075380312120966e-01
7.627432850874482639e-01
8.835040553978714684e-01
7.996236251380073323e-01
8.506398295732618964e-01
9.826134960654052675e-01
1.173866309212854731e+00
1.244799805263336001e+00
1.613171729267760091e+00
9.859106693145476275e-01
7.842718020058516704e-01
1.066079382631186512e+00
1.384480470223292681e+00
2.070885943002982899e+00
1.658519684437643305e+00
1.708560422723695016e+00
1.759665870920387620e+00
2.177802320230426414e+00
2.178605110641102183e+00
2.088554653531637051e+00
1.996400115552320997e+00
1.916032177040177364e+00
2.078540922824470005e+00
1.059051670790527311e+00
9.797648045792443083e-01
7.741495491496811487e-01
2.168125989575914847e+00
1.876113084063705472e+00
1.689346155040349240e+00
2.208454028944283110e+00
2.073774260608167275e+00
1.957244619212796577e+00
8.467802335247116563e-01
5.357305174252843250e-01
6.278506248745007179e-01
4.001387352692094002e-01
5.085364964930165765e-01
1.397130293078493679e+00
2.006024176084410637e+00
1.446142543822733773e+00
7.367527190210725330e-01
1.805206498132544413e+00
1.392487483428969552e+00
2.215285695831207546e-01
3.005507340732466171e-01
4.095651083608789489e-01
4.972324538566897933e-01
1.125418384828140717e+00
8.449188172852065692e-01
7.269652139806983548e-01
2.222928010114618491e+00
2.078525110874165804e+00
1.963852132971582565e+00
1.178601828749435754e+00
1.241220050473586189e+00
9.570796682313978954e-01
8.198575593008937679e-01
6.212137943868173418e-01
6.937955905416998137e-01
6.191742197755605304e-01
1.320063004768766035e+00
1.129224941313289099e+00
2.070448133263624868e+00
1.636107658800048714e+00
1.421039011571025190e+00
1.440704708643692600e+00
1.639631689686648908e-01
3.212838508714920271e-01
7.609464098565059675e-01
4.188687338764676693e-01
5.569457616443787007e-01
6.737018212608679724e-01
4.068764153250811755e-01
8.020446619494341345e-01
5.885974492579063577e-01
1.017218150333632831e+00
8.709826395111309738e-01
7.692844774057102653e-01
6.532874890187624350e-01
4.974980905265285469e-01
5.817799834757497734e-01
1.079957122496009392e+00
9.686111744413591351e-01
1.160757384439619067e+00
8.942475428676345262e-01
2.093494865247123471e+00
2.026870156956588787e+00
2.076126675649800024e+00
1.727969454804597182e+00
1.608986690540564535e+00
1.178130072305865861e+00
2.108664624724043257e+00
1.717710284915101138e+00
1.595285534325974863e+00
1.461541487927970673e+00
1.306955790064614487e+00
1.203301074176100993e+00
1.173064130310071951e+00
8.022785760950873479e-01
2.924950504629386105e-01
3.847195621071091698e-01
7.150797561725861229e-01
4.952187363274851428e-01
5.964685399578428804e-01
4.567336480797427045e-01
2.465578368316191926e-01
7.636150286532622511e-01
8.570314228824535974e-01
6.733050932743431805e-01
6.904703774965306184e-01
5.805635949984280231e-01
4.628610183695450186e-01
9.245881018729932288e-01
8.327099643574877863e-01
6.335586979014526943e-01
6.421812082657412102e-01
9.815318869125406742e-01
4.801575576219795360e-01
5.923583271039369880e-01
2.179478764515336842e+00
2.059146032550478456e+00
1.973888599131399246e+00
1.844382350023010986e+00
1.846374218880069584e+00
1.021710554953188854e+00
8.707316365459015772e-01
5.842311612777563168e-01
1.571398305969804676e+00
1.418987130989622258e+00
1.387119806956988555e+00
1.132449218168320781e+00
1.030751210756091441e+00
9.527269444322147285e-01
7.235322619078353723e-01
8.229059705694659055e-01
6.110652403060846671e-01
5.171895698001131025e-01
3.845669853483672518e-01
4.421582951968274777e-01
6.513884773657114824e-01
5.421498412289605939e-01
4.859503650717753032e-01
3.772991147475331375e-01
7.393333428047060840e-01
6.679682737721954755e-01
6.134625797586881202e-01
5.137316966885284719e-01
8.056890251110909729e-01
7.380625847256185867e-01
2.927197164021890785e-01
4.030124956281405102e-01
1.888883594399063170e+00
2.957187916096173375e-01
7.349589527531531497e-01
5.654280975666822195e-01
4.430208736354708243e-01
9.207511571676616491e-01
1.309631354503505873e+00
1.011796772868336136e+00
1.136941452670449326e+00
1.948401049325185541e+00
1.078213002153609601e+00
9.513492451632061808e-01
8.358468914987976506e-01
7.909534818747874230e-01
6.827576828364491091e-01
5.753664367598817497e-01
4.992631842456172753e-01
4.477984633775957124e-01
4.847315693746854226e-01
5.981614763105064236e-01
5.292479492017559961e-01
5.035555191717807633e-01
6.747276708344827068e-01
6.257819895135185995e-01
5.655564315625247751e-01
7.162722612668920297e-01
6.708568656043394363e-01
3.229428836305587858e-01
4.450215849435887883e-01
3.728605263209370246e-01
3.019593052833615121e-01
7.180451352009709076e-01
6.263478650647362755e-01
5.396183989537830517e-01
4.557715173405414433e-01
7.468429499509199321e-01
8.260618244768294094e-01
8.605363237315433178e-01
1.054664936234415817e+00
9.392446742651454628e-01
1.500236426958419411e+00
8.787961338397083377e-01
7.774491046700872099e-01
6.772480998264880370e-01
5.831916707724049687e-01
5.128316532268699657e-01
4.873231724723675606e-01
5.031861102746557624e-01
5.603062520541336466e-01
5.197389358476475207e-01
5.692945653327794453e-01
6.313101111466173920e-01
5.987649237918671874e-01
6.563082334536042284e-01
6.284889397078332607e-01
4.499419375413526989e-01
5.080451154272144221e-01
4.455393461865933546e-01
4.038933008723440965e-01
4.072546042709243030e-01
6.242515679223215042e-01
5.169522873342231595e-01
4.898292162568063657e-01
7.099687094169181423e-01
7.729101399146437457e-01
8.606920024512705325e-01
1.198064013574736908e+00
7.274473957326249574e-01
6.533762192251636458e-01
5.678044766432825963e-01
5.041870564835151391e-01
5.282174600608133819e-01
5.097064897723815324e-01
5.963500939914504473e-01
6.066505810183736580e-01
6.188295835736836725e-01
6.039774967054019061e-01
5.103745090215563440e-01
5.343335451626497479e-01
4.625363560103235572e-01
4.509455874577159018e-01
4.569147649948029910e-01
5.634080058313674089e-01
5.019460313292536391e-01
6.335303263123509554e-01
6.998830258639295865e-01
6.087758838871121236e-01
6.988942061772780434e-01
8.312892149148329857e-01
6.248116409316214481e-01
5.849213599862551627e-01
5.546215263719787014e-01
5.015577119206012791e-01
4.972384616459826212e-01
4.973337217449677605e-01
5.978106851571005631e-01
5.915312512312731474e-01
5.926571654808966416e-01
5.860195224877573494e-01
5.331796068709920844e-01
5.397053267673804777e-01
4.837611957289522646e-01
4.795574132306474335e-01
4.756184871263822722e-01
5.289944962713351018e-01
5.782750127392315420e-01
4.803059834474942558e-01
4.862670813872483899e-01
4.901420473638760100e-01
4.563870666947362764e-01
4.810155849018428742e-01
4.769999130887221384e-01
5.500097165646576913e-01
5.073997386546514887e-01
5.785328655538988230e-01
5.926146241279121041e-01
5.674316843154133538e-01
5.528431014270221988e-01
4.722899705166691553e-01
4.650067139649207149e-01
4.817836981596893553e-01
4.770983951798562495e-01
4.946089909359838721e-01
3.710079754922822048e-01
4.361550318335923326e-01
4.297706756770465764e-01
3.781050454309061171e-01
4.248183885833050621e-01
3.900122851885521880e-01
4.346339677690166381e-01
3.980666384539818803e-01
4.326226603969807738e-01
4.043350552109253315e-01
4.159176815417449657e-01
4.446369971401196719e-01
5.841068758009765327e-01
5.729066891606455769e-01
5.687499498709185364e-01
5.333187235680494354e-01
5.344189305662525591e-01
5.126968951645775041e-01
4.825545094776837463e-01
4.813187219990435195e-01
5.026933666211749197e-01
4.747546271952619579e-01
4.861292653192099134e-01
4.631552302441887536e-01
5.065146839110021837e-01
5.292221152466450862e-01
4.797811525558596801e-01
4.841701805463336505e-01
5.361849930772263351e-01
5.238011211862317884e-01
4.464637855867790717e-01
4.301408346657008552e-01
4.515029364651362287e-01
2.101422625134024891e+00
1.878084918139241610e+00
4.620011525125163887e-01
4.867330941446167958e-01
4.770426843939841177e-01
4.445594332998054621e-01
4.665800531954398256e-01
4.301364309096041838e-01
4.277568065118347307e-01
4.551512236452475713e-01
3.107430527574627233e-01
3.631425635817063791e-01
3.517372618814556540e-01
4.079137826344858553e-01
3.698961114002764505e-01
3.889873900669740259e-01
5.613547518682525661e-01
5.479604740552898035e-01
5.424542424693389320e-01
5.229607232624539082e-01
5.136093341232056408e-01
4.701460463334726225e-01
4.479264178959277976e-01
4.643679745186806151e-01
4.445130663427655504e-01
4.560071954255967563e-01
4.751714434767322359e-01