<?xml version="1.0" encoding="UTF-8"?>
<VTKFile type="UnstructuredGrid" version="0.1" byte_order="LittleEndian">
<UnstructuredGrid>
<Piece NumberOfPoints="5313" NumberOfCells="8293">
<PointData>
<DataArray type="Float64" Name="Temperature_@_t" Format="ascii">
2.099646737665084441e-04
2.049387846394992837e-04
1.277862188697595415e-04
2.127506436906078356e-04
1.311497239336317647e-04
1.490298822279582350e-04
2.120978673613120179e-04
1.368812335718512247e-04
2.049556756058076997e-04
4.968874713650117680e-02
5.636799214204823300e-02
3.368167317420493051e-02
5.530980266401978873e-02
7.170578059991382369e-02
4.099516661293853281e-02
3.848693588912450309e-02
4.848004737298856198e-02
2.982795474615065889e-02
1.013542737050145831e-01
1.579693416449843013e-01
1.212923232353290276e-01
1.708592110579877921e-01
1.691822099145428304e-01
1.850544769452266980e-01
1.597058484436818804e-01
1.579800018724505928e-01
9.593744727122215099e-02
1.012606633840321679e-01
1.003308352491849714e-01
9.928772229440287200e-02
1.152358937204519540e-01
1.007088246925698372e-01
1.052707611148935851e-01
1.094820634610968457e-01
1.157415936475805346e-01
1.102204704810002128e-01
1.144363357057473635e-01
1.213078132881526827e-01
1.207483369602822543e-01
1.270393604084006922e-01
1.266261458701513909e-01
1.331052387026441242e-01
1.822538099353466223e-01
2.056114679423287073e-01
1.318299738290213963e-01
1.398009781691765263e-01
1.397445999614840562e-01
1.477337297050582421e-01
1.472767343664286022e-01
2.076945489135829936e-01
2.718876611085304096e-01
1.018967586841282996e-01
1.022277064527909557e-04
6.317567922135087968e-05
2.758740146610670535e-05
9.090339699928403987e-05
7.102834273964472283e-07
2.914687154277811738e-05
1.030442019106646588e-04
1.715383557554398530e-01
2.676434149821924069e-01
2.423068388299043918e-01
1.596114761090244860e-01
4.057633444908773784e-02
2.732706497828071152e-02
1.320393390274483825e-01
1.461027826786712447e-01
1.528857832886915680e-01
1.390471868716113835e-01
1.322230518539740107e-01
4.051442617241138994e-02
1.040549179434248073e-01
9.253451249071936724e-02
6.934776203039498543e-02
5.458686936808259532e-02
3.160641696176608867e-02
1.217136510114155967e-01
1.135625894931744650e-01
1.099492342751185875e-01
1.136334321603172937e-01
4.909584077801056740e-02
7.938564128103002548e-02
6.351001135153658272e-02
1.027317933170945191e-01
5.089334909415720032e-02
1.108004554142652254e-01
1.009539861778598752e-01
9.304466853063277088e-02
6.279443433645763573e-02
7.506971503909948273e-02
9.305524812603738205e-02
6.523724924022195060e-02
9.912165017835350422e-02
9.265489585815379903e-02
8.268159852307367663e-02
7.357118653212432746e-02
8.628116246303821346e-02
7.502089429369364348e-02
9.080144548860187570e-02
8.683440040281417693e-02
8.043865263513630404e-02
8.407163410947457449e-02
7.990135197597365846e-02
8.567307733411637372e-02
8.360377688551688669e-02
8.173334724936631712e-02
8.089820028441621624e-02
8.259376496598894168e-02
8.182439483025648330e-02
8.048588032090500666e-02
7.970186576407911616e-02
8.045148468469603964e-02
7.875973903421107369e-02
7.747187211367426163e-02
7.841199803151109593e-02
7.647988541172712207e-02
7.457885897045314627e-02
7.608784354084097146e-02
7.386410457210589031e-02
7.113890570371213251e-02
7.187539801553821661e-02
7.328706989684172224e-02
7.001493982057158116e-02
6.752407543197824769e-02
6.331398077620409293e-02
6.659272628652601611e-02
6.447930270423882226e-02
5.411195912319170104e-02
4.701910439664463287e-02
4.233423879529556177e-02
5.198877566167869196e-02
4.115612107096041500e-02
3.708242360955887190e-02
3.437030572725296995e-02
2.719383277290329456e-02
2.515877795902999453e-02
2.859727967907796722e-02
2.442021124125066597e-02
1.920893966118334545e-02
4.729859548791047474e-02
1.834603466804324637e-02
1.537253928306898249e-02
1.391391636662981691e-02
4.025078007835133920e-02
3.346981077101486568e-02
2.210440183520325300e-02
2.880509538371964218e-02
2.329402703132471553e-02
1.884912166557418597e-02
1.518375579951527360e-02
3.719556353797885684e-02
2.926886968246475429e-02
2.850375539647540327e-02
2.484668430498559316e-02
2.168827692949788777e-02
1.898541811180377847e-02
3.633110873585799344e-02
3.046603218331128335e-02
2.807848098075846691e-02
2.544447618341875994e-02
2.474459059053462501e-02
3.691934523619049002e-02
3.156146988305233436e-02
2.788314225422388118e-02
2.670802812401732590e-02
3.965151306221387228e-02
3.366865106774190319e-02
3.650398528311413898e-02
4.061829440211074671e-02
4.653296637589898060e-02
4.630354776932110727e-02
5.120528086181186378e-02
4.165172392795725431e-02
5.331795071086359306e-02
6.392705490257821754e-02
6.452674471199162931e-02
6.582758982971302630e-02
6.253176035168019065e-02
6.704800538844297997e-02
6.982620949636698937e-02
7.290548791289441777e-02
7.349270718256920021e-02
7.495350098661757166e-02
7.662842106859209246e-02
7.109355981658553592e-02
7.494787853997086913e-02
7.732613411768105016e-02
7.919471865830084167e-02
8.187121644009796861e-02
8.229711814789711366e-02
8.115792374837622891e-02
7.821098158576396397e-02
8.021946440353537600e-02
8.225797636567182269e-02
8.298592020341934161e-02
8.203759956462720881e-02
8.090400306603751091e-02
8.346053360190797132e-02
8.234136420317246519e-02
8.458094791947931568e-02
8.448285242992967237e-02
7.962922122665219704e-02
7.931122282578509375e-02
8.696517524767009844e-02
8.426432565457811497e-02
8.805645934565604904e-02
7.430727760475766552e-02
8.144064850267729305e-02
7.313427233225687496e-02
9.286319018427444116e-02
8.853596832047465337e-02
9.550242641826507672e-02
8.612424241115179679e-02
6.551446442514023694e-02
7.540184712700043201e-02
6.429211294197309523e-02
1.017495363983316747e-01
1.054620158214764902e-01
9.846983091266242605e-02
1.134160151486242052e-01
8.049718196403281290e-02
9.335579626696688393e-02
5.218063332851610725e-02
6.605860313010754326e-02
5.414225724918603905e-02
1.114558396806291790e-01
1.174496458729834131e-01
1.377988197490133404e-01
7.139134400926887281e-02
1.128858220671393464e-01
9.165744985760346242e-02
3.563994349942779111e-02
5.379819559947046637e-02
9.955650984139130522e-02
1.323784987026468407e-01
6.025807016177193304e-02
1.589301639244173614e-01
1.769757446246531807e-01
1.545071992171557218e-01
8.090527421991398904e-02
1.151910118607357564e-01
3.894222613250162418e-02
1.285090444885951255e-01
6.076132054305806440e-02
2.856663394221892194e-01
2.520572858378136161e-01
1.659812047880117325e-01
1.009632206901206336e-01
1.605911949603142652e-01
2.399639688819293626e-01
2.450512133044376872e-01
4.430073649046999129e-02
2.916532901844338249e-02
4.047180123887069575e-02
1.410137571500962306e-01
1.457219785967186210e-01
7.372667537678860572e-02
9.616273298366029287e-02
1.055317176319351541e-01
1.341857858093374045e-01
1.654288697222831284e-01
1.355719133946861055e-01
2.729310912181970306e-02
5.644540201642456873e-02
4.670174490790542088e-02
1.077389657166310383e-01
8.000865261846536181e-02
1.151235326417729410e-01
1.215600305991957203e-01
1.155411369061280780e-01
5.140616231824964716e-02
1.004226053364817850e-01
6.544495822106845273e-02
8.663413449159784729e-02
1.031867795241834390e-01
1.128207030412206879e-01
1.039408316674203803e-01
6.967740273951875118e-02
9.254369483376757854e-02
8.115385680519078548e-02
9.623131335652390650e-02
1.020416078371380320e-01
9.702195539458598195e-02
8.269532900904225103e-02
8.940034175940901606e-02
9.341653853057763079e-02
9.549106237505319839e-02
9.293704905500034530e-02
8.880993997124804473e-02
9.084917031242246976e-02
9.044176383608508452e-02
9.153183626716190902e-02
8.960407001121145631e-02
8.846754637102760555e-02
8.862223275189222427e-02
8.760584427070276792e-02
8.649521445136733322e-02
8.569073049440235901e-02
8.416799719429007842e-02
8.425644639672233427e-02
8.201995053841623640e-02
8.219079709187733507e-02
8.020467365211554622e-02
7.985954772438297322e-02
8.087188101421541320e-02
7.565329706822371270e-02
6.642552932782799791e-02
6.851311447343268191e-02
6.652159327720902349e-02
6.441476109930030503e-02
6.665130203220789862e-02
5.737642012394989638e-02
5.258464193382007129e-02
5.283986043806333799e-02
5.734787580087700315e-02
4.908889736789748964e-02
4.273678781429385981e-02
4.447819157483880181e-02
5.296100613733154688e-02
3.628332857636203806e-02
4.350348346841948627e-02
5.147042361634840413e-02
3.400437558740298377e-02
4.345952031592414250e-02
5.259818844716065978e-02
3.607252366580240149e-02
4.420278744464260778e-02
4.866431969322393414e-02
5.658963512644814980e-02
4.228422122832471708e-02
5.193131689138621304e-02
5.656657551213939428e-02
6.532353743359936571e-02
6.538533002646608472e-02
6.663688223715767689e-02
5.172563071424095271e-02
6.318669423316151945e-02
7.173346140745269495e-02
7.886772101705118165e-02
7.808581755276101932e-02
7.983348885506731663e-02
6.472116046124291866e-02
7.969907230570615064e-02
8.175738131641939466e-02
8.316549448709259496e-02
7.664765239499791993e-02
6.358611537225142274e-02
7.802160536154624515e-02
6.871773493228672258e-02
7.770604840072245501e-02
8.184182141747053940e-02
8.401163760136115544e-02
8.567072833122044151e-02
8.372217406836243714e-02
8.461142642288417559e-02
8.714891261007197409e-02
8.721219051916916098e-02
8.606953683988671777e-02
7.957118187875154847e-02
9.304721265997679958e-02
7.244038434988853137e-02
6.110333841164053426e-02
6.251822243097891751e-02
8.789022752028842478e-02
8.725125204065838080e-02
8.714933161755344937e-02
8.629114602541361478e-02
8.514364645039317059e-02
8.925965523703402460e-02
8.932527346881656560e-02
9.487732503738281753e-02
1.076388111506883932e-01
8.465160162025359147e-02
1.021660938175543570e-01
6.924691240357683242e-02
3.809190098200505165e-02
8.888245076566571312e-02
8.815089683622320815e-02
9.317716003927588309e-02
1.022447679412512161e-01
1.140515587679220705e-01
1.296991873982465959e-01
1.216649201777842831e-01
9.311935536834524407e-02
1.249593534265884959e-01
6.698403232541200181e-02
9.213820995295669836e-02
1.088715013190659914e-01
9.898049853475346382e-02
1.529802704108232381e-01
1.387291245612051471e-01
1.221212413563426136e-01
1.165513138166883039e-01
1.561025916649158574e-01
1.801701234678597663e-01
1.136265319933815188e-01
1.789285776510300130e-01
1.582541007736089911e-01
1.311189494334723260e-01
8.927372539667623175e-02
2.648723511449351253e-01
2.984673425045453743e-01
1.299660105961567003e-01
2.817266805466085711e-02
1.891828339064633574e-02
1.540838824187945044e-01
2.411249595208131979e-01
2.093212782429920149e-01
1.471033651907650841e-01
1.541802667869651422e-01
2.379920711036563608e-02
1.372438984693233680e-02
1.238208198208077260e-01
1.236517703658435857e-01
8.517576161318488048e-02
7.236238986848632371e-02
5.778334227113050142e-02
3.526913428907349490e-02
4.610144494096338891e-02
1.235262346524334948e-01
1.229328634364438289e-01
1.132146111888154838e-01
3.319213833400933705e-02
9.387373885453698108e-02
6.524071827429832326e-02
4.840790472668185518e-02
1.012970003352922366e-01
1.027125567368402104e-01
9.975781541254204188e-02
5.181740302797269854e-02
8.164618907299960038e-02
6.569806693149861376e-02
8.956928201461485106e-02
9.154732907228983751e-02
8.988389737751922848e-02
6.832675128854200086e-02
7.882007697127495216e-02
8.552505971660959161e-02
8.504329867828680500e-02
8.417004417302777208e-02
7.812011525306382376e-02
8.147397923892243932e-02
8.144605715701880300e-02
8.063634078594902888e-02
8.010498078491774809e-02
7.991140061611597123e-02
7.868086498483718716e-02
7.819284494961215026e-02
7.748278482520434829e-02
7.550912392118654115e-02
7.921594112560773060e-02
6.857640821685918875e-02
7.139981047493440536e-02
7.051311860587342051e-02
6.912180204399769046e-02
6.808533197077375199e-02
7.135774725968581367e-02
6.525725285198305525e-02
6.344636788317203901e-02
5.952993822145222907e-02
6.087943640933868999e-02
6.477385954042487459e-02
5.267510715597402415e-02
5.617366952986292683e-02
6.035214525325537788e-02
6.267469076059950517e-02
6.344754325518504878e-02
3.966727388264527226e-02
6.559759107817098034e-02
5.949511041898228325e-02
4.778603901808642362e-02
5.270838567538068536e-02
5.920977200391768641e-02
8.256751927756515730e-02
7.867858266729643724e-02
7.361767314548228747e-02
7.057582058035552497e-02
6.878152099549905696e-02
8.981576166222599023e-02
1.088553651888654605e-01
4.606011733051941504e-02
5.268085496660092348e-02
6.015431131161401435e-02
9.226915650982565886e-02
8.205101500610925691e-02
7.993360849416722425e-02
7.642688124885886614e-02
7.686594599529439353e-02
8.004281848855164527e-02
7.995261697905421683e-02
1.242818442529324968e-01
1.467878183363917621e-01
1.162682654379874753e-01
1.309400576959892371e-01
1.399003500166892677e-01
1.087222952361188433e-01
1.116179761700593492e-01
1.664717983595020157e-01
1.575781236093087290e-01
1.793478539073160294e-01
1.318335946431980488e-01
1.883116221702894610e-01
6.639995075824868531e-02
1.088133905811774632e-01
5.602878050886942601e-02
6.438883040562844162e-02
6.050569565117901866e-02
6.295543479477265503e-02
6.477438745468275250e-02
7.078989870524692030e-02
6.757614354300728321e-02
6.986469583550898588e-02
4.764394323955539051e-02
8.991838835579753220e-02
8.257926814462214493e-02
8.094577434937207105e-02
8.032710192101312485e-02
8.267245073171949898e-02
1.092319848242156166e-01
9.935543488883620544e-02
1.060079334797788264e-01
7.989155585837046103e-02
7.905674070812171439e-02
7.078149626366045388e-02
7.845800999760986494e-02
2.588023880507744900e-01
3.021263778490307916e-01
5.237490522025956691e-02
5.906753039133902372e-02
6.849997489400445894e-02
8.770462382382536448e-02
8.241385279065843728e-02
9.507814794166417893e-02
7.486509299126159478e-02
7.719616927821043584e-02
7.783049952715667685e-02
7.955055938332843135e-02
6.794472275176013931e-02
8.635066383354250696e-02
8.110994004886840081e-02
7.688646763509396354e-02
3.056328592558787624e-02
5.098987391094973731e-02
2.725049472797760886e-02
2.279242092128361263e-02
1.312334175217217021e-02
3.620949317921982186e-02
4.258746244860818486e-02
4.168933219260875789e-02
4.764773533961845497e-02
2.854361726503649305e-02
6.020947351934447314e-03
1.850417668450673320e-02
4.852546414278127024e-02
5.761199399869317006e-02
3.595192054215348015e-02
4.238282383517001650e-02
2.898162179829678886e-02
2.023166670478930215e-02
5.844056340495294016e-02
1.091609492248014901e-01
7.541370979276912356e-02
6.539596879830338050e-02
4.808528470653482961e-02
3.929865462802932530e-02
3.211656771226525237e-02
5.954908355599484310e-02
5.985650523025357050e-02
5.557546532740303968e-02
4.790459615602876697e-02
4.223465051751423144e-02
5.482197289380728866e-02
5.489901120377208010e-02
5.235884206655838646e-02
4.911594252482440887e-02
5.302235014799080992e-02
5.525354530881716741e-02
5.122064306206599443e-02
5.221470817149595489e-02
4.810818801517605797e-02
5.142230934510506890e-02
5.052046064991609631e-02
5.004326910604783851e-02
5.063605824900938024e-02
5.215842555033198963e-02
4.530825198804825510e-02
4.836327980969461204e-02
1.072369028509613242e-01
1.751154456743452825e-01
8.419217431390500772e-02
4.927720889450318276e-02
4.749297474863634766e-02
4.991045363664237122e-02
4.657704116732611088e-02
8.830558654118972339e-02
8.713826473248598159e-02
8.565738614925443029e-02
6.399957142897490237e-02
7.095546403322261497e-02
2.605843554627111300e-02
6.561666640716769250e-02
3.965262689623148817e-02
5.756619224002114399e-02
4.599973383877907496e-02
4.882388009118496935e-02
4.294705890563447342e-02
6.109554848416743483e-02
7.828769007468962260e-02
6.965362079497418313e-02
6.490072945381308855e-02
4.849280369922245176e-02
4.956671324433854081e-02
5.066691933982039181e-02
4.978533107375590627e-02
5.264176114541915114e-02
5.269485125279018550e-02
4.904245211570876228e-02
5.066233872269650801e-02
5.055997796735576394e-02
4.486857169969134945e-02
4.831617660645271678e-02
4.461502139877174949e-02
4.836683830546678609e-02
4.664414431599564481e-02
4.896682667429213404e-02
4.619283282084446496e-02
4.532604359094206947e-02
4.543801388928741386e-02
4.154792293148177468e-02
5.852929614786342438e-02
6.537013661775754880e-02
7.213366633794869587e-02
5.001866290442560925e-02
4.799307041674533147e-02
5.277651621179878932e-02
4.984709217467016285e-02
4.373393439265749194e-02
4.073709427988685128e-02
4.111897932389255161e-02
4.202591896792801096e-02
5.638187133558394959e-02
4.867917650927588991e-02
4.802114787996990958e-02
1.741941074403087486e-01
1.560226629744602134e-01
1.521161901471778100e-01
1.083168070956860574e-01
1.147832498216065228e-01
1.221076643528173356e-01
1.309101147250008590e-01
1.414030633666968906e-01
2.138840702624575929e+00
2.080922094858650429e+00
2.117764448909973396e+00
2.059183561905175708e+00
1.962905507097012947e+00
1.919590206137036459e+00
1.793187917797482767e+00
1.764232502781754253e+00
1.451287766846981464e+00
1.228195550130866565e+00
9.656956331556154627e-01
1.740828113668447585e+00
1.805581695548887255e+00
1.517594391148936683e+00
1.398879369646593762e+00
1.750091076361294240e+00
7.101212957457856412e-01
7.429685850860482388e-01
1.078339705089631062e+00
1.409120696053463462e+00
9.900854042827296198e-01
8.985809640269288856e-01
8.949600832672431894e-01
1.734687992910541432e+00
1.849877061857928995e+00
2.073066145422883366e+00
2.118297044203039103e+00
1.983583432017664405e+00
1.907126969934507477e+00
1.455173989937259771e+00
1.375426138433895495e+00
1.173248320592182425e+00
1.116363320072238929e+00
9.868865596851517097e-01
9.552230248940882795e-01
8.844524971869524022e-01
2.133297634178464630e+00
2.080988940423063482e+00
1.837922455285353918e+00
1.644558173126582146e+00
6.349982703887047109e-01
5.592607036484191774e-01
5.978841702363423272e-01
6.607107903469181531e-01
6.458199123810391962e-01
7.152342875459362093e-01
1.854507038319845424e+00
1.551073281277693949e+00
1.354603680889028494e+00
1.235507997590959306e+00
9.940391198141360629e-01
1.349904050874727091e+00
9.366278705062611731e-01
2.124348516279585652e+00
2.100381329987692780e+00
2.045666276363702352e+00
1.972371706713355266e+00
1.922516895650682622e+00
1.875579585299939067e+00
1.796595755733026323e+00
1.711423012422586876e+00
1.829927522296071141e+00
1.836615271232184821e+00
1.748550910509358847e+00
1.481566604825330646e+00
1.302365237816823340e+00
1.739694355731791653e+00
1.652336387883304170e+00
1.062716420072654211e+00
9.788481203761342231e-01
8.092476073461377650e-01
8.376480811340811794e-01
8.629660256488631553e-01
8.085721935210812283e-01
8.881384531014582251e-01
1.837378086955975709e+00
1.557093211615918626e+00
1.853176882744537846e+00
1.876693350621348566e+00
1.016296775873563707e+00
9.499109203980974359e-01
1.079768716275023133e+00
1.044417550729774158e+00
1.265820355522088159e+00
1.338257908257610040e+00
1.885316503262363552e+00
1.921021285857280603e+00
8.685019162159767214e-01
8.862228657448658620e-01
8.787242548385785224e-01
8.326584894442884410e-01
8.743889620889206959e-01
9.214132229550141551e-01
9.527247664696929519e-01
1.538970657249572938e+00
1.354800176702657843e+00
1.944400002140438621e+00
1.986388106890023542e+00
1.189255770522373634e+00
1.024679125108417299e+00
6.026169218803585359e-01
5.778290753172388161e-01
6.693077010369553603e-01
6.934003126151782048e-01
8.055239562018660093e-01
8.275463715855987390e-01
5.174452324574874140e-01
4.992761773269579484e-01
4.539951332037690523e-01
3.707785011828187982e-01
1.944067381015832874e+00
2.034280064906224261e+00
1.812405016915071609e+00
2.549611349416068262e-01
3.047540433405949711e-01
2.417526555870102845e-01
2.244715618740613650e-01
2.636699909103838446e-01
1.647166812609005992e+00
1.563121637461598601e+00
2.058276580271743761e+00
2.000617552252419440e+00
1.909810131518439702e+00
2.092012647718499263e+00
2.199905471372232690e-01
2.848079365896152293e-01
2.396633619780944024e-01
3.677281156657449257e-01
1.453616571553549841e+00
1.292221549218265819e+00
4.793456523415049464e-01
7.402779068844103083e-01
4.740814830681033820e-01
1.727770780518985472e+00
1.600629947547230536e+00
2.853619706830693437e-01
1.201155573601071724e+00
1.320691092201613959e+00
1.243554707181333097e+00
9.049402454451505040e-01
1.046506428117732312e+00
5.919532973378537344e-01
6.533876740088100377e-01
6.624086006368046231e-01
8.407390870216275847e-01
5.856189862142450187e-01
5.558478862417162158e-01
1.467861683096187420e-01
2.436864300775001824e-02
1.924217354002688285e-01
5.273648339999097434e-01
6.549679977683702248e-01
5.703853466323625110e-01
8.244840469536048877e-01
2.279991074202739332e-01
2.595166077006128003e-01
8.515375293884571706e-01
1.193213686174623200e+00
2.160601259487731629e-01
1.634582931678220941e-01
1.526251954334014949e+00
1.596615413055539667e+00
1.209567973169081989e-01
1.611434978100330026e-02
1.743759508905888156e+00
1.858029473499067441e+00
1.941789718620315464e+00
2.082126821499406422e+00
2.161932710286291304e+00
2.128404878305544035e+00
1.916886467084527590e+00
1.819811803479320478e+00
1.520022608868737635e+00
1.430739892505713762e+00
1.213768654010279446e+00
1.122479589861758997e+00
8.949366690340160302e-01
9.688100113643633993e-01
7.798097157226508980e-01
8.055149907205161330e-01
7.287313372106517528e-01
7.983939469635742414e-01
7.950607779393045194e-01
9.273201466954813510e-01
1.054534984179474000e+00
1.340110093035089545e+00
1.716886444677278689e+00
1.696699207785275831e+00
1.885081834047141136e+00
1.924647145532525139e+00
2.064837772460989207e+00
2.110497485825217456e+00
2.171199066746225537e+00
2.134093897882837876e+00
1.960719291508623341e+00
1.864353016223739168e+00
1.594847417881095852e+00
1.502161761110254456e+00
1.285770697977945520e+00
1.229119371057306065e+00
1.081715884825580121e+00
1.001689592212304580e+00
9.007935633350522275e-01
8.606628656111351416e-01
7.612506093096100823e-01
6.857043325797735900e-01
7.871949669192399579e-01
7.985635424240177249e-01
8.498680162914840075e-01
9.057782191554870632e-01
1.096555756335149567e+00
1.175386054427517646e+00
1.537065487924564433e+00
9.981997398782148645e-01
8.123916483326096838e-01
1.103277707810966346e+00
1.425643936387156918e+00
2.014626812544543011e+00
1.588315448126772944e+00
1.728266261250303470e+00
1.774591059481785527e+00
2.131935661518146397e+00
2.143248162927095635e+00
2.062877299426227218e+00
1.982257135961953631e+00
1.910168418533602974e+00
2.071725997820187626e+00
9.847394336528866310e-01
9.064246914489644258e-01
7.170960848773426655e-01
2.157010823221824136e+00
1.885337143561959694e+00
1.713626780548791473e+00
2.175460923265655211e+00
2.025712975634798685e+00
1.884654353423933726e+00
7.735718469635789463e-01
4.941086269269036046e-01
5.725981853236580266e-01
3.687023805040379743e-01
4.549264710516706667e-01
1.409934994802311437e+00
1.987951507586733557e+00
1.480455063848334918e+00
7.642133332880600705e-01
1.821427507525621659e+00
1.422560072206611625e+00
1.908608442580733422e-01
2.816444448172179538e-01
3.743282310152156733e-01
4.476486671616565216e-01
1.139240516231871725e+00
8.804799017712656717e-01
7.624940557337616109e-01
2.187056307565765856e+00
2.053361247827699909e+00
1.950480107243909744e+00
1.223200359338540322e+00
1.278052805502765565e+00
9.912992696586321317e-01
8.496180456654867097e-01
6.533298988649247629e-01
7.179497268853922698e-01
6.459272548376820966e-01
1.353682938925187429e+00
1.168490111152530986e+00
2.024350351517726576e+00
1.588300635318218745e+00
1.372175302002006658e+00
1.370358752354058351e+00
1.573383644014359484e-01
3.299097283762613686e-01
6.966878746036582193e-01
4.106953898132833514e-01
5.109141745753215114e-01
6.238737738863749938e-01
4.046926563623526873e-01
8.162217252372888643e-01
6.291653067550885270e-01
1.062852774586481308e+00
9.063023427706154989e-01
7.996946911977478312e-01
6.965663065273233201e-01
5.295068971430019200e-01
6.099522548560336599e-01
1.124466377450031640e+00
1.010199120335138812e+00
1.102820702187213620e+00
8.528562274242814656e-01
2.087793957878851359e+00
2.039579681328966387e+00
2.047805566424520052e+00
1.731524058419713130e+00
1.617220428487099237e+00
1.190934737069258897e+00
2.118587505043263874e+00
1.750677404232875878e+00
1.547502760955538292e+00
1.414349929628554436e+00
1.260015722232025626e+00
1.162063154997781123e+00
1.134786226255087405e+00
7.604415677184942490e-01
2.914025406358367598e-01
3.889306405510326581e-01
6.672351059684882291e-01
4.860616545071515526e-01
5.740893561219450048e-01
4.506354410826567403e-01
2.917835063623736569e-01
8.070385019373527147e-01
9.029511800830877233e-01
7.250793597473184082e-01
7.422178303961236567e-01
6.358125122459843404e-01
5.006133707852712389e-01
9.696617947488299638e-01
8.758560506971282411e-01
6.023555247216054731e-01
5.992006650141875612e-01
9.321275401746819123e-01
4.493272000201355421e-01
5.490168922653712036e-01
2.162341911333007793e+00
2.027922552616124641e+00
1.925239222496557545e+00
1.840380633438305047e+00
1.834739604163222015e+00
1.025051377843687606e+00
8.985082607005506761e-01
6.084699564989514142e-01
1.615262803000324876e+00
1.469466038598744362e+00
1.341729768030076375e+00
1.094212129888479490e+00
9.996730716902194613e-01
9.141988142619068558e-01
6.719169460951143202e-01
7.727704246705838775e-01
5.845742722071595177e-01
5.016681536323969182e-01
3.944218037289477508e-01
4.456551008141431125e-01
6.303119280890842058e-01
5.227096086550155896e-01
4.777684489079543906e-01
4.056381059529087785e-01
7.914743201875655831e-01
7.113505601610663476e-01
6.644110705331989220e-01
5.757748304535821315e-01
8.553380155590739609e-01
7.782311839737742210e-01
2.674807381535704298e-01
3.938186095800461084e-01
1.865097158686891854e+00
3.273959925264954274e-01
7.849825525611746624e-01
6.116414337403236479e-01
5.047479738223076273e-01
9.708406955965381835e-01
1.364001469081624229e+00
1.077511374941047428e+00
1.195261107557749058e+00
1.907804117077769535e+00
1.043950759947937623e+00
9.221422216587561449e-01
8.116978751740002718e-01
7.597284785099411852e-01
6.650537955517743516e-01
5.689628694700800127e-01
4.994035561209298479e-01
4.460326341305513864e-01
4.688094547423417580e-01
5.463757918555141035e-01
5.095745315114574847e-01
5.659693473218364579e-01
6.993569287159105974e-01
6.518949698269042026e-01
6.069484508410158963e-01
7.447722198659454396e-01
6.950404517176737018e-01
3.275209959675102200e-01
4.490932550611929086e-01
4.501551119629718656e-01
3.881135241193311991e-01
7.699318618771577860e-01
6.858578879207869461e-01
6.073556999205451667e-01
5.249502839733128923e-01
7.950516850539729452e-01
8.770642572768984069e-01
9.222520040081114701e-01
1.118903349049557461e+00
1.006583430220135966e+00
1.407370934070393043e+00
8.526790790409215504e-01
7.586219911997430509e-01
6.690514726956034997e-01
5.778481177048381268e-01
5.035291135641121185e-01
4.693877956550286390e-01
4.802424230590977561e-01
5.273565586901609592e-01
4.915726557285694520e-01
6.093171768109890696e-01
6.565114000610637879e-01
6.274150166021720265e-01
6.815103753345730375e-01
6.533362694993780639e-01
4.581626689620959536e-01
5.070122458862591497e-01
5.007019483708879948e-01
4.708985771887285732e-01
4.780613353494624351e-01
6.941034183711515260e-01
5.900647448874348777e-01
5.359401907281790001e-01
7.773881400241274831e-01
8.411800436812268966e-01
9.403462872632027958e-01
1.105809366642028557e+00
7.040609627500015177e-01
6.329471260959674828e-01
5.437863520799215422e-01
4.800646701823443885e-01
4.963646184276952478e-01
4.813722107070030898e-01
6.270046381153336901e-01
6.326510801547217122e-01
6.432376160316572999e-01
6.279044619367764035e-01
5.096060088550309342e-01
5.190436986548718767e-01
5.069634733528372017e-01
5.018989935192812446e-01
5.122701105317547521e-01
6.239937048761156069e-01
5.444655675874424672e-01
6.961101000747906831e-01
7.656531640256285520e-01
5.254589721872424679e-01
6.046623997321983746e-01
7.500039605285497846e-01
5.953372221653432383e-01
5.593445061884362302e-01
5.332620130116435542e-01
4.735956182369813749e-01
4.677558518904950668e-01
4.686421269962745551e-01
6.236571740940858311e-01
6.150249922056105767e-01
6.153989252716265401e-01
6.083232154592850272e-01
5.201554592642264607e-01
5.216531532207191457e-01
5.285333880924244498e-01
5.269027092423609338e-01
5.222737661924684582e-01
5.709915850784222924e-01
6.231355208265190182e-01
4.056806956169576317e-01
4.103989045938608027e-01
4.166302635763639572e-01
3.914630839375070614e-01
4.141005070863159054e-01
4.058561260101007373e-01
4.742495743834105326e-01
4.357978394325145999e-01
4.974547297238031685e-01
5.143430080133728488e-01
5.441582722227741309e-01
5.317566508366738942e-01
4.447351275016424577e-01
4.376897716069529376e-01
4.539280115651686542e-01
3.989865780240131055e-01
4.120470526279259582e-01
2.699346987005695753e-01
3.135647242443675986e-01
3.081985913564914137e-01
2.737937788343679513e-01
3.073096376986952927e-01
2.824730351958726904e-01
3.162358112231127283e-01
2.900767803509010090e-01
3.187022775224693238e-01
2.970537376586150358e-01
3.082005526146655017e-01
3.304318577017555381e-01
6.069614672816877610e-01
5.939134197053134168e-01
5.889718908014807131e-01
5.161549261776969821e-01
5.157535962533479346e-01
5.616377584625913411e-01
5.286245038250970696e-01
5.250632263988895820e-01
5.459618119358349286e-01
3.996850489453834254e-01
4.132570180188032682e-01
3.854026247918850845e-01
4.312178577632222454e-01
4.514854065732633037e-01
5.256437042262063208e-01
5.306124130953204787e-01
5.165565227293832384e-01
5.054170249851296370e-01
4.204247581215352358e-01
4.050735696531695962e-01
4.252379259947034473e-01
2.057036873177370939e+00
1.814501090039333242e+00
3.792664092906526396e-01
3.965660023185407224e-01
3.797305658770271930e-01
3.564538187063205354e-01
3.629142068757199024e-01
3.370126127102791025e-01
3.282915653298772996e-01
3.458253032995344811e-01
2.256576810547991085e-01
2.642386766068893778e-01
2.551421168498625436e-01
3.064822600208744197e-01
2.710807755917724049e-01
2.881109044176092815e-01
5.811766476792110669e-01
5.659381238527065872e-01
5.595748201774349839e-01
5.049905434882346889e-01
4.957057287326577799e-01
5.145281439099566034e-01
4.888342950024052169e-01
3.887663213990693589e-01
3.661321427946893636e-01
3.839439367058653518e-01
5.212795982778662962e-01