<?xml version="1.0" encoding="UTF-8"?>
<VTKFile type="UnstructuredGrid" version="0.1" byte_order="LittleEndian">
<UnstructuredGrid>
<Piece NumberOfPoints="5313" NumberOfCells="8293">
<PointData>
<DataArray type="Float64" Name="Temperature_@_t" Format="ascii">
2.336448253570300366e-04
2.279992965888234032e-04
1.421709716776501276e-04
2.366891636224211371e-04
1.459066663671116455e-04
1.657953846067801744e-04
2.358998491589565829e-04
1.522752971381238947e-04
2.280203978302945071e-04
6.072604880094941565e-02
7.376860021747258522e-02
4.337051966767328792e-02
4.837520127947076559e-02
5.898797895720712253e-02
3.434687629872299613e-02
4.758069453757837741e-02
6.588783156852799638e-02
4.054744828523557804e-02
1.131761971889404111e-01
1.756798724249605537e-01
1.383389306000586960e-01
2.137059022100214478e-01
2.102743502892333582e-01
2.471707921003916120e-01
1.893876192752368404e-01
1.827339483661470920e-01
7.527445227477319589e-02
7.968549182153722432e-02
8.395340457851908911e-02
8.341479999572137816e-02
1.028626097645102822e-01
7.601749977921334889e-02
7.978480606591999147e-02
8.239876806299369083e-02
8.892110648131149042e-02
8.277021427589263680e-02
8.881105866084050560e-02
9.756646916612018994e-02
9.961756374890380628e-02
1.085044095724024132e-01
1.106616536635792875e-01
1.217801244197653926e-01
2.450182787581083599e-01
2.922060042360936638e-01
1.224420993874419106e-01
1.377153714185610500e-01
1.406837802275585636e-01
1.573771834900312694e-01
1.589536341064681224e-01
2.961133137634535117e-01
4.219315825443025747e-01
7.584422353022607366e-02
1.137320163139837617e-04
7.027987639247960635e-05
3.069994049167004224e-05
1.011307118546655889e-04
7.420744480783073642e-07
3.242559659340286227e-05
1.146359105061684700e-04
1.659935281030715248e-01
2.376118548551840182e-01
2.398119560243502368e-01
1.517721715502765301e-01
4.956118783158180302e-02
3.323018559189105936e-02
1.180530836526268168e-01
1.464171648643728951e-01
1.530841865759499099e-01
1.375720026392199258e-01
1.278569894590553258e-01
4.815770306392281458e-02
1.114632592483235513e-01
1.041916336160973733e-01
8.024756975498002765e-02
6.373878993070314358e-02
3.723504159486883819e-02
1.171111452310248102e-01
1.133777512885433547e-01
1.141348803969017556e-01
1.152954484178827649e-01
5.663863574985761318e-02
8.725273098424801699e-02
7.147140365338053303e-02
1.053768816766144506e-01
5.814982862041893907e-02
1.105881278038601395e-01
1.033572387994414199e-01
9.800997164503932879e-02
7.012232233130546999e-02
8.188044268994622288e-02
9.714703063129347116e-02
7.225165064809192794e-02
1.016244811457239633e-01
9.643707300150276829e-02
8.828293333863045100e-02
8.004744565064039752e-02
9.109151874109751301e-02
8.121060724261633390e-02
9.479031913331727177e-02
9.135178487479489462e-02
8.593288529729747882e-02
8.896460300764068296e-02
8.532429989964369910e-02
9.025804870799103430e-02
8.837739937092228826e-02
8.672359360130306449e-02
8.587724488243320131e-02
8.735184118928873698e-02
8.661794802080920175e-02
8.525738372680774502e-02
8.441901757678783869e-02
8.516460468138015161e-02
8.336743494015139144e-02
8.196424325959637824e-02
8.297824719752271150e-02
8.087920109841131855e-02
7.880974375096347351e-02
8.044899936617992686e-02
7.803137391018379054e-02
7.507256489820383905e-02
7.587098378342975458e-02
7.740174864360958862e-02
7.385144093153572786e-02
7.115881180627688096e-02
6.664106482621882932e-02
7.015138840010087806e-02
6.784941769291318037e-02
5.689569324928703264e-02
4.939798747697393688e-02
4.446697133981770272e-02
5.464961161804243045e-02
4.320865994262978321e-02
3.892219248254980696e-02
3.606580073483311305e-02
2.853200382585334427e-02
2.639197729270172446e-02
2.999931180320282442e-02
2.561350724058647152e-02
2.014831598097206397e-02
4.967237099721906468e-02
1.923166349870360226e-02
1.612013883656983684e-02
1.458380928601372625e-02
4.223401628715627715e-02
3.511031212780121175e-02
2.317831448802753699e-02
3.020953660853489819e-02
2.441680241417221522e-02
1.975296715838028433e-02
1.590661781625018339e-02
3.900548494718499709e-02
3.068626396030733894e-02
2.987445544698159872e-02
2.603616580022036220e-02
2.272086548494926805e-02
1.988381593749316209e-02
3.807858750396930086e-02
3.192331190930745854e-02
2.941351672325486638e-02
2.664968408327715588e-02
2.591240394660762961e-02
3.867410466826253640e-02
3.305248903697163149e-02
2.919829465449318151e-02
2.796362608580070172e-02
4.151194422186889332e-02
3.524701976072126819e-02
3.820566606349896227e-02
4.250120332151390706e-02
4.867576623268800307e-02
4.842023961853397090e-02
5.351944542296813156e-02
4.356420277613362591e-02
5.571861279750366103e-02
6.676425488759403504e-02
6.735893265274126018e-02
6.869688576188372198e-02
6.529670417736417598e-02
6.995846194272473118e-02
7.281691478710218546e-02
7.598933811128374960e-02
7.659247066122826242e-02
7.809846190972891122e-02
7.982159957150643248e-02
7.412423839389421787e-02
7.809417108992687540e-02
8.054221475565852273e-02
8.246118579157123152e-02
8.519374050324872438e-02
8.556347494875256310e-02
8.446353103513866423e-02
8.145673684529718128e-02
8.352028572061916123e-02
8.563962328364332910e-02
8.629945581565080792e-02
8.510537745639010221e-02
8.424101258695024241e-02
8.693747937240288437e-02
8.538611180106635279e-02
8.811631291458019155e-02
8.789627166838888395e-02
8.222596772764874384e-02
8.179700776444097376e-02
9.079953372254989663e-02
8.750089812693453983e-02
9.197383887587293194e-02
7.609279779686425882e-02
8.408366549961451830e-02
7.477850556472244448e-02
9.761788596709757015e-02
9.228486795739904158e-02
1.006210024543012227e-01
8.917036087420074364e-02
6.643504160252815260e-02
7.709964074442060555e-02
6.503641988248684558e-02
1.084718063776644870e-01
1.126420355993385108e-01
1.035041283588104821e-01
1.211578673473832912e-01
8.236253077895899777e-02
9.683028140386294724e-02
5.222848620305835243e-02
6.660811129229811389e-02
5.406606109130557281e-02
1.214308859402756791e-01
1.281821383608360010e-01
1.492197053328246925e-01
7.181502109272938639e-02
1.187668482570216621e-01
9.409275008239330329e-02
3.508917783212542330e-02
5.321296086046439083e-02
1.113373248283844874e-01
1.471259486922672499e-01
5.922253337807453777e-02
1.754388257862221079e-01
1.924322329838440426e-01
1.646847023769947294e-01
8.128047924987102935e-02
1.191437920378061871e-01
3.739817377472060000e-02
1.514930778090995411e-01
5.812104380802966819e-02
3.192866973754103777e-01
2.675924703079157196e-01
1.751525975442455307e-01
1.014264072428233965e-01
1.622456939707368206e-01
2.578178424849227879e-01
2.466794764001714879e-01
3.872722521633602949e-02
2.542481129524900435e-02
3.595870255100179491e-02
1.394705025932532760e-01
1.443492171014385261e-01
6.683237618346436759e-02
8.929528430762379010e-02
1.007045297998307443e-01
1.329025521259622478e-01
1.685238323140758054e-01
1.354602191855130977e-01
2.438998020687028687e-02
5.085756461428472125e-02
4.219196770191367685e-02
1.042072992224593458e-01
7.467524281661559737e-02
1.128398310193449022e-01
1.215761115177923374e-01
1.138887769119929089e-01
4.690720941264514554e-02
9.704239058880224922e-02
6.065198514216818548e-02
8.230557054710201104e-02
1.003238378852511214e-01
1.112267780704380010e-01
1.014127145015850107e-01
6.519466870564789851e-02
8.891246548091313873e-02
7.693990939678965746e-02
9.306095346542782309e-02
9.947011374224958014e-02
9.407030938463656344e-02
7.865894672789745801e-02
8.581960187293448394e-02
9.021067950507169475e-02
9.250394537798339867e-02
8.983931401567937791e-02
8.533046542857745942e-02
8.758565893300203353e-02
8.735327248372810882e-02
8.847882192457513784e-02
8.643832526263157956e-02
8.545378541076288637e-02
8.563762158517267131e-02
8.463812068174896008e-02
8.359506738175022378e-02
8.283597254200246451e-02
8.138798908843768165e-02
8.147172248565211217e-02
7.934565896942408214e-02
7.950819146423780681e-02
7.762358356048884578e-02
7.728935917648745157e-02
7.829749606514935234e-02
7.325341582994457368e-02
6.434976727108697447e-02
6.638315612043563241e-02
6.447120854875273976e-02
6.244834165397050718e-02
6.462678101752113158e-02
5.565339572433389281e-02
5.101168011883647907e-02
5.127232902503629092e-02
5.564768302856740179e-02
4.764542079621222892e-02
4.148161843689644052e-02
4.317776085742659059e-02
5.141256843767117585e-02
3.522794778035923113e-02
4.223971824669187081e-02
4.997930948993801331e-02
3.302130684898095525e-02
4.220439020592348794e-02
5.108463449260453731e-02
3.503428426531512291e-02
4.293201215000464616e-02
4.726898724217652725e-02
5.497216440612063409e-02
4.107302983381481976e-02
5.044776334507362209e-02
5.495791712779297261e-02
6.347113011659280546e-02
6.354127033798351309e-02
6.475852647644884941e-02
5.025441130099084219e-02
6.139986343953306169e-02
6.971693231832713777e-02
7.665208086280209110e-02
7.589417657411909324e-02
7.759620965588499841e-02
6.290084140736908191e-02
7.746645292649584347e-02
7.947052035203684694e-02
8.084090273167469920e-02
7.367217315285373713e-02
6.074359043725857665e-02
7.508961192227177339e-02
6.553599201050155920e-02
7.552698237520519275e-02
7.955445699317643948e-02
8.166499112638243851e-02
8.326871871290844607e-02
8.092061720410614889e-02
8.181793459999767149e-02
8.451718225003271301e-02
8.467530334890036037e-02
8.325814228286333718e-02
7.648557640963274395e-02
9.029214264271222257e-02
6.909253043082463908e-02
5.773751545511719013e-02
5.908423273990315305e-02
8.538237162274112113e-02
8.476809318158977369e-02
8.470159560225985762e-02
8.388588347409253743e-02
8.277126736063294965e-02
8.664417691126782839e-02
8.679651658381591639e-02
9.237778037061210312e-02
1.054840669976687545e-01
8.141731548948183406e-02
9.946628987397368449e-02
6.549859670624579022e-02
3.526946659890610458e-02
8.642572202567809503e-02
8.572491376543033004e-02
9.075953886398357984e-02
1.001234664145764092e-01
1.126322859945293603e-01
1.286111619375611692e-01
1.197096288985068785e-01
8.981494737610834500e-02
1.227244330847671455e-01
6.206306018537757763e-02
8.973574435906760127e-02
1.071828320786850086e-01
9.678092659541831511e-02
1.528077220960333826e-01
1.385676688894989794e-01
1.215830511005658449e-01
1.158464674467691580e-01
1.555214900542387924e-01
1.809523500348365899e-01
1.103791947669103407e-01
1.792582130398319151e-01
1.589700358893634258e-01
1.314970438357376814e-01
8.951510655893743507e-02
2.668832887285861322e-01
3.031525973851511013e-01
1.317034942751397208e-01
3.498751214633470663e-02
2.364584769568603764e-02
1.350830253337142461e-01
1.823905936379887904e-01
1.860144843908409229e-01
1.287774503508836155e-01
1.318961210013825658e-01
2.875240812327953255e-02
1.660165614486726685e-02
1.147098574843100904e-01
1.147297034570051999e-01
8.675405542061517816e-02
7.984671807669586896e-02
6.550214329603408492e-02
4.145453259306597360e-02
5.307745372015078983e-02
1.129324459316902035e-01
1.109293070794055841e-01
1.027070240093704706e-01
3.839631578477836760e-02
9.161847119177456145e-02
6.917396867327564591e-02
5.373828346294143993e-02
9.597632550929149908e-02
9.606301432008988728e-02
9.342873711796285952e-02
5.641055710332926187e-02
8.130350204722615326e-02
6.841944628712112730e-02
8.664314926622899982e-02
8.758715440297643040e-02
8.606690660656114711e-02
7.024745587610688180e-02
7.832453055214100290e-02
8.311496323418146592e-02
8.239087997656731333e-02
8.154985413986910736e-02
7.751824993205917724e-02
7.967261695033618640e-02
7.922784150801012726e-02
7.841566075212023923e-02
7.834406869575258336e-02
7.790767681857697913e-02
7.660064904968436061e-02
7.608454305386384842e-02
7.546945296289599148e-02
7.346222833899511417e-02
7.703703632471739504e-02
6.668404095107752227e-02
6.938938875867259326e-02
6.849932470733928469e-02
6.712715454818347915e-02
6.608746611305327257e-02
6.922933311703431680e-02
6.328848163759720480e-02
6.149569099199726080e-02
5.772900042978052620e-02
5.897468900545300985e-02
6.272223640183779980e-02
5.098518907333688538e-02
5.434700685789670138e-02
5.834608097933315085e-02
6.087536844286657589e-02
6.150268373837926295e-02
3.940914249876261571e-02
6.338625454697391359e-02
5.752059588516053590e-02
4.618618928750355818e-02
5.091734311879225067e-02
5.715604293769623034e-02
7.878319580838044622e-02
7.529397139680413242e-02
7.072308641806485108e-02
6.793615265420042959e-02
6.617371821490766748e-02
8.506302932191273092e-02
1.026240468506669223e-01
4.446205191527578121e-02
5.081284827138812105e-02
5.797815877813353169e-02
8.754291004181041780e-02
7.833579346755034645e-02
7.638547493196751192e-02
7.319250067810773031e-02
7.359298604369490793e-02
7.642842552110105936e-02
7.633678893247902719e-02
1.123015451806358284e-01
1.345326517987339432e-01
1.065972897558701699e-01
1.213616178508873517e-01
1.304458760855113364e-01
1.020975316226492152e-01
1.037557981534103224e-01
1.537704554913520150e-01
1.430455685807849875e-01
1.638271490161713473e-01
1.236497106125656886e-01
1.736154868098387649e-01
5.995042091604308593e-02
9.365613906453079673e-02
5.395501722746576939e-02
6.194826669594351298e-02
5.818384125055817147e-02
6.050099751592557390e-02
6.220317746797095204e-02
6.795062738154832027e-02
6.482098836297386923e-02
6.694882107070140864e-02
4.593115192470872271e-02
8.532049594977207663e-02
7.871663567472175771e-02
7.720865468369225715e-02
7.667480651686381377e-02
7.876259388955454688e-02
1.003516225528406774e-01
9.348839847368446698e-02
9.890785918630613793e-02
7.621584058756537827e-02
7.545615754597657932e-02
6.778484763722961159e-02
7.506720203748742937e-02
2.422101674942541971e-01
2.769585214415757335e-01
5.041269683175522709e-02
5.672741258541434684e-02
6.566421224676310953e-02
8.323911913157125420e-02
7.849452522105465624e-02
8.969553291556714436e-02
7.158189371080959928e-02
7.376649187777636896e-02
7.432015123884824770e-02
7.588431326450569003e-02
6.501524279649947835e-02
8.201093184451355156e-02
7.729867021325366461e-02
7.342683000662102166e-02
2.206192547335885865e-02
3.366003543844148238e-02
1.795879645380941275e-02
1.661498221805423822e-02
9.513991364781201193e-03
2.734361005388785681e-02
3.095778613416087441e-02
3.478266236532929351e-02
3.927368646628502658e-02
2.200539050361518742e-02
4.584528448682998782e-03
1.412636721641324228e-02
4.597454779626004157e-02
5.809359032611128432e-02
3.024360453008375499e-02
3.860790309773969031e-02
2.397644826804145451e-02
1.601529765856449239e-02
6.334544035216953251e-02
1.449103404463448208e-01
9.061847357491267796e-02
7.533426226762686417e-02
4.819300592114078574e-02
3.637961236446573404e-02
2.790676481003782558e-02
6.882190671577019525e-02
6.806651756101518569e-02
6.063620971086683409e-02
4.937560532785347650e-02
4.106227456488519695e-02
6.153684785441504435e-02
6.181526855893943601e-02
5.739427403269787425e-02
5.195602615221286275e-02
5.930186764729421939e-02
6.183841211998677284e-02
5.698580754077669369e-02
5.842609187808822657e-02
5.295768318086329501e-02
5.757405384871134429e-02
5.629126875550650999e-02
5.593808830785066549e-02
5.669687117215283650e-02
5.848373563752930909e-02
5.070635674526809827e-02
5.419702591566474131e-02
1.174146551387875992e-01
1.835062699428997302e-01
9.162618083030225902e-02
5.349155709743001058e-02
5.333804637928481890e-02
5.614352517124950037e-02
5.223893149422915300e-02
9.686657896943699775e-02
1.021496645829300109e-01
9.759560396802485771e-02
7.552629844475716725e-02
8.225258781457955859e-02
2.654769367135837929e-02
7.098586084207697544e-02
4.685800144834934705e-02
6.722432734893034334e-02
5.182596054606331687e-02
5.510971509806712049e-02
4.827226760922510851e-02
7.072176219006809372e-02
8.709847389325701961e-02
7.956844536890536612e-02
7.024294498174808721e-02
5.569640165405340820e-02
5.700782584762223437e-02
5.812297194595942434e-02
5.731431947576133556e-02
6.068954840206865903e-02
6.123658588503989170e-02
5.696188153657052305e-02
5.862789392084118145e-02
5.846768489990154111e-02
5.073575791584229028e-02
5.473360391379623185e-02
5.064953763400252551e-02
5.500272403472474675e-02
5.340439141282347230e-02
5.591818043532370552e-02
5.301826212816636991e-02
5.167225865148819541e-02
5.207112615578137621e-02
4.688128765894691158e-02
6.752957102731435568e-02
7.476456549658885842e-02
8.082276435006550963e-02
5.770272477680490203e-02
5.522966930393622548e-02
6.102056700390893346e-02
5.757575840354810237e-02
5.024874067993326254e-02
4.614660146779156480e-02
4.677392705592085809e-02
4.802926357689831643e-02
6.506038353437613997e-02
5.611055931204750324e-02
5.546740019978349534e-02
2.213548339064418113e-01
1.853992679221768691e-01
1.711064112074392740e-01
8.211501927717386462e-02
9.217717746936487933e-02
1.062110037911087462e-01
1.250464086881780679e-01
1.500350395872341036e-01
2.153773002555685157e+00
2.061072950643774160e+00
2.150624378012496507e+00
2.107204752259860925e+00
2.039947672709684579e+00
2.009085753288109899e+00
1.928126208232819438e+00
1.908288037829896089e+00
1.628401950816691590e+00
1.381145380513786103e+00
1.062198941307115119e+00
1.643676912993347505e+00
1.736682925764529539e+00
1.680127275007248011e+00
1.575839468609087746e+00
1.897959784090089252e+00
8.238479018225345341e-01
8.507203782201514519e-01
1.037616133701909193e+00
1.363813982506099753e+00
9.436429568011597269e-01
8.576404935894763604e-01
8.176459715569263098e-01
1.703061110280277068e+00
1.825705920903615276e+00
2.086136837944958966e+00
2.135321209132211351e+00
1.981775249821262408e+00
1.892736539836890719e+00
1.352065095202729772e+00
1.257032240089861252e+00
1.071788113764030825e+00
1.007678644328151130e+00
9.033167458742598077e-01
8.702132383470253529e-01
8.185867116046502412e-01
2.164665378827169473e+00
2.122956276390760788e+00
1.892649415002892521e+00
1.714950848587211585e+00
7.704174038555094972e-01
6.733436998144578522e-01
7.278347517894350194e-01
7.584397120163679507e-01
7.692221520697204440e-01
8.048572867275858300e-01
1.831809275168224671e+00
1.520871965306516582e+00
1.419328462272228641e+00
1.306342192782552036e+00
1.039295182952715946e+00
1.453836008013557501e+00
9.818131911412736335e-01
2.126594925927119295e+00
2.067599132250512728e+00
2.069710329236044366e+00
2.014868505033205803e+00
1.981443922563691284e+00
1.949617676963204538e+00
1.892646903625062382e+00
1.812971366033609977e+00
1.817823292292957582e+00
1.832654164472176328e+00
1.719811945807957265e+00
1.441094083672583848e+00
1.246881197070391023e+00
1.634160406429778334e+00
1.517177705054250536e+00
1.128896365715494898e+00
1.088068067269928552e+00
9.000373512881941762e-01
9.235005303497199058e-01
9.546268152786093752e-01
8.973251175057695983e-01
9.780790976526636538e-01
1.926742225414894483e+00
1.659555963340229701e+00
1.858152394193275159e+00
1.896931437900621908e+00
9.647962150713190743e-01
8.950476848762050075e-01
9.482105690114678298e-01
9.054065722758461998e-01
1.111701235598029358e+00
1.203880270545534925e+00
1.911275695528536156e+00
1.972083808413754857e+00
7.718192041194641417e-01
7.814538454917646648e-01
7.625073325151088266e-01
7.416042553522775860e-01
7.653252886787498266e-01
8.014131205341301634e-01
8.336852708937798617e-01
1.681633816390377234e+00
1.515574171834292105e+00
2.055293844832226213e+00
2.086294901332254703e+00
1.348466701547488267e+00
1.178710255007746621e+00
7.365201517908533946e-01
7.061006297465006742e-01
8.087679778818991361e-01
8.421453834392581550e-01
9.529442118463945510e-01
1.003542647653913766e+00
6.535170372857771470e-01
6.150537337087080836e-01
5.811307918684667229e-01
4.599971207245947546e-01
2.006691299387896255e+00
2.085761559643463325e+00
1.896336380654346954e+00
4.254889135417048163e-01
5.148726932805872680e-01
4.124492039813698607e-01
3.662870158074688076e-01
4.050655240703657234e-01
1.750091276391845696e+00
1.673866331759563231e+00
2.090783973165295517e+00
2.024854543141822560e+00
1.976657447159464454e+00
2.136415685870496350e+00
3.315173023298029764e-01
3.934878870007503804e-01
3.271294685206861397e-01
3.955771707329147069e-01
1.565988494114987306e+00
1.398031358361255583e+00
5.014980234491921429e-01
7.979800799932907918e-01
5.169657878946448681e-01
1.728583819612896200e+00
1.585889444407644788e+00
2.702507352992521428e-01
1.286128374153731713e+00
1.288011672456035983e+00
1.195623511461069599e+00
7.983476323755365200e-01
9.938225262576378949e-01
5.456061519583691455e-01
6.100948578482774387e-01
5.597482033382532585e-01
6.925717153816285387e-01
5.626357832677972848e-01
5.185998369069207969e-01
1.625680862866466792e-01
2.584074152318226875e-02
2.132763918208611942e-01
5.250197400349183585e-01
6.535069125528796263e-01
6.422890321832647187e-01
8.816879977718732331e-01
2.533125808604629325e-01
2.888009523901500231e-01
1.010661112268788520e+00
1.351767144946868893e+00
2.408248704062575241e-01
1.827531242982350368e-01
1.645508992490623434e+00
1.699283429431662995e+00
1.350240677000671685e-01
1.679118818879846847e-02
1.811697014018904373e+00
1.906684338818705804e+00
1.973358923064806980e+00
2.101844242578776445e+00
2.168138550060129788e+00
2.136413114853600526e+00
1.908413871481858815e+00
1.798339558522112025e+00
1.501960671303971040e+00
1.406597460700904634e+00
1.190256994438801064e+00
1.124926888155066695e+00
8.637668726239182693e-01
9.851463181066506536e-01
7.544500536020167791e-01
7.891039648297996090e-01
7.090015946132759428e-01
7.758088469051572789e-01
7.385166608867206328e-01
9.185790627413503717e-01
9.770402565656568505e-01
1.266265364079978806e+00
1.682267022089994013e+00
1.658131358819759926e+00
1.878630849252318047e+00
1.924800467743491561e+00
2.080898208067357924e+00
2.129923399005002604e+00
2.197410949167875494e+00
2.161056445890452427e+00
1.987721669644052280e+00
1.890586599379077803e+00
1.616145801559746520e+00
1.519101011274205160e+00
1.296958963880270321e+00
1.232907808369310354e+00
1.073103140601354699e+00
9.978612682641058163e-01
9.141820932651574250e-01
8.500288170619820782e-01
8.957711708804881878e-01
8.177627652519244839e-01
9.530382398992326420e-01
7.867126174046038534e-01
8.357949390391570255e-01
1.034599871838236096e+00
1.222238682367329465e+00
1.283954517740330648e+00
1.650631810761519880e+00
9.608261201078630576e-01
7.507910634166571340e-01
1.021440946410639095e+00
1.331604914805917250e+00
2.082800466655844840e+00
1.689946956118025367e+00
1.666095406509674248e+00
1.719947997268286510e+00
2.179195390928307940e+00
2.171256404643309601e+00
2.074931086357505006e+00
1.975163222779852346e+00
1.889716649436640639e+00
2.049365238083683316e+00
1.096996242437312974e+00
1.021067630640471346e+00
8.063416271191650164e-01
2.141545978735509781e+00
1.836303149610381880e+00
1.638644108817553624e+00
2.200242370739572628e+00
2.080459709697423332e+00
1.985130494909002730e+00
8.771255477775536935e-01
5.571640360044548546e-01
6.638569859295088138e-01
4.223700945417556141e-01
5.470446453405021225e-01
1.373061123359080149e+00
1.987429085634669024e+00
1.389853896713363790e+00
6.982039108649261694e-01
1.759794996992757543e+00
1.340710693314937751e+00
2.414325682336125600e-01
3.209154038237262974e-01
4.379796801087116886e-01
5.352142283106220422e-01
1.105371624026395549e+00
8.101289482744281623e-01
6.875608527436952722e-01
2.213588271242223904e+00
2.063487868548044890e+00
1.942989422496625762e+00
1.117695580088171825e+00
1.185751924229212273e+00
9.052847767401578372e-01
7.748162324670545553e-01
5.833847168236159231e-01
6.547176129377877407e-01
5.815637359636682824e-01
1.266245824590234825e+00
1.073486067637944075e+00
2.071613487380834062e+00
1.646399776822039085e+00
1.436438156047469494e+00
1.468601103816763898e+00
1.811756834157739193e-01
3.243838788100537607e-01
8.083106965675157518e-01
4.308085664598874098e-01
5.931871491771341098e-01
7.118069627415449796e-01
4.160977777848687276e-01
7.977863368230755370e-01
5.519749868135901405e-01
9.575312848566609469e-01
8.190884651502614577e-01
7.227017800002397685e-01
5.995016277399526361e-01
4.592004718778180949e-01
5.407145407169723361e-01
1.020456632345933423e+00
9.121792580199773459e-01
1.182730503026462099e+00
9.091333287795853035e-01
2.064056852870968850e+00
1.981962164915922253e+00
2.066891592831147317e+00
1.703766629269123367e+00
1.584764103785446077e+00
1.159676637917882447e+00
2.065266354560975959e+00
1.660205631898206580e+00
1.606150525007554064e+00
1.474783503685099362e+00
1.323288468518243333e+00
1.217870329731730816e+00
1.186319436791682946e+00
8.231609651727475052e-01
3.039165712581980983e-01
3.904134827262694118e-01
7.515226031820719799e-01
5.076851877948487246e-01
6.166813068665485398e-01
4.681283088218528010e-01
2.065833754900985308e-01
7.070225265139225002e-01
7.978489118994401830e-01
6.121187012840445529e-01
6.285063435120223918e-01
5.180812991596879247e-01
4.144179746257340979e-01
8.651777405719501823e-01
7.753022150885254815e-01
6.469897268671160884e-01
6.670473912857286525e-01
9.944902421939405546e-01
5.003203719309132769e-01
6.198937179564246724e-01
2.158764798190121681e+00
2.052713313917116977e+00
1.982788302683739401e+00
1.823002471801072444e+00
1.828257591634507406e+00
1.019721307248833364e+00
8.455085983950105799e-01
5.615688954635776886e-01
1.506817050280881976e+00
1.350247732694950464e+00
1.400756234946546108e+00
1.146087676367341546e+00
1.041933754233465015e+00
9.709831336006893299e-01
7.544099175093575971e-01
8.517141759429597281e-01
6.275346484500026190e-01
5.282608075280147419e-01
3.866490752629069827e-01
4.473271369767967132e-01
6.699376546382209696e-01
5.612839989513680461e-01
4.982705219218716008e-01
3.306249778992601529e-01
6.764067842411631837e-01
6.116682351174108634e-01
5.524308023322346273e-01
4.450645945107182255e-01
7.435369432866869577e-01
6.832585968669311338e-01
3.096986282384856515e-01
4.133727166862957159e-01
1.877686648009154746e+00
2.823655847192158008e-01
6.832223102930216063e-01
5.169814292139721656e-01
3.828602669112728396e-01
8.557041111913128439e-01
1.238878799774951744e+00
9.347637738631185966e-01
1.064324176833745694e+00
1.948792304026302880e+00
1.090756204105626903e+00
9.632040531660164273e-01
8.469784901927777110e-01
8.076685573062860612e-01
6.922060336590314389e-01
5.793278912916679513e-01
5.009431040031774307e-01
4.565594382079321556e-01
5.023551315985247401e-01
6.386386995502276731e-01
5.484804078356574353e-01
4.333160840418134874e-01
6.313291518187110762e-01
5.816213642316703236e-01
5.106577972570403023e-01
6.696077570551997038e-01
6.278910508590583861e-01
3.273482105024799194e-01
4.459284216934144007e-01
2.936480804838478842e-01
2.079958424427646724e-01
6.591209509585610471e-01
5.644261227209643739e-01
4.705040321159516536e-01
3.838272366937579561e-01
6.869629584597204408e-01
7.615957684303694686e-01
7.867047109401318350e-01
9.770331836594351449e-01
8.602346181791978852e-01
1.556117535674850672e+00
8.905528820136550117e-01
7.863052174834670449e-01
6.807684132560529733e-01
5.867476281215836531e-01
5.210387349351399688e-01
5.061623156202375018e-01
5.250010357674097516e-01
5.878623662419694140e-01
5.445010874331294159e-01
5.150124711151856660e-01
5.880098990679619719e-01
5.529705865485604610e-01
6.128880367881162083e-01
5.859263324512343774e-01
4.480867112154962029e-01
5.106258476228276999e-01
3.791015700782190412e-01
3.268438183908702332e-01
3.258627490538761884e-01
5.504942231400391517e-01
4.399833378668794315e-01
4.294051272142121456e-01
6.341013222824011253e-01
6.939552037120882977e-01
7.720169084040590102e-01
1.261753627219602603e+00
7.407296914819361255e-01
6.659478013747862635e-01
5.847193180411250912e-01
5.264022034542137352e-01
5.548897329111793786e-01
5.342835074890264213e-01
5.493180512428523787e-01
5.635182634531678003e-01
5.770416429790000690e-01
5.630666569451603376e-01
5.126683199379766798e-01
5.457276992856608944e-01
4.019179994998285377e-01
3.849352455568155196e-01
3.875044316239145692e-01
4.927465840340243264e-01
4.430266035634967126e-01
5.597362398212176737e-01
6.223575476158846875e-01
6.787817722434549284e-01
7.751403260829239361e-01
8.964455363526921960e-01
6.442149628977190678e-01
6.021888427812663869e-01
5.695488766148576465e-01
5.257185192477874525e-01
5.219785523309579123e-01
5.217113335969276733e-01
5.551626976195699337e-01
5.514213793012985310e-01
5.532922797056367692e-01
5.472841746136533070e-01
5.427510337995845591e-01
5.523152212928936766e-01
4.229178924360939562e-01
4.163944735970878663e-01
4.132255986678912696e-01
4.701716929156026792e-01
5.164991906878519945e-01
5.477629569799441489e-01
5.548951873690755043e-01
5.570197730673320802e-01
5.156575296782412998e-01
5.406906315462181034e-01
5.411179007964456167e-01
6.155051520286707323e-01
5.704777543014928343e-01
6.476528940476010687e-01
6.588305099658263719e-01
5.831205132026406890e-01
5.671542981223295365e-01
4.954512473371479597e-01
4.878743450676301108e-01
5.053267720599403656e-01
5.476996938979610263e-01
5.691251128954273319e-01
4.676276948136471323e-01
5.517857120473538268e-01
5.455642896098504835e-01
4.784226057850505254e-01
5.362142499165105658e-01
4.932222337042680982e-01
5.466585627829629868e-01
5.012291029204478665e-01
5.395139435716963527e-01
5.062412878476443279e-01
5.174827319459013308e-01
5.512823524830590127e-01
5.448627007734540006e-01
5.358675127162355611e-01
5.326369662823163820e-01
5.450099137140298478e-01
5.468927004623141963e-01
4.474976894898498037e-01
4.210835429225737170e-01
4.220888372049166892e-01
4.433953384985286350e-01
5.423630816068579774e-01
5.511377134817242451e-01
5.334331256411092292e-01
5.728136770154744761e-01
5.968500408561207005e-01
4.192510203551708114e-01
4.230732211216239880e-01
5.491038041548562676e-01
5.356584456043969045e-01
4.682408819307543602e-01
4.510532010514251011e-01
4.734853502863186625e-01
2.104687752359630348e+00
1.896779488906398914e+00
5.369913139740259966e-01
5.680308901618765782e-01
5.651281957559918245e-01
5.249430760360564996e-01
5.611320254867734336e-01
5.158277030726368118e-01
5.199124516576962840e-01
5.559386075697178020e-01
3.954970655418191816e-01
4.589592069517726691e-01
4.458642846386400294e-01
5.032114731570236366e-01
4.650437122554270108e-01
4.849986544726346827e-01
5.258494721901399993e-01
5.147192800987675509e-01
5.102499711469532517e-01
5.346064968495681802e-01
5.247941624893562862e-01
4.112989430833725035e-01
3.930676111671718709e-01
5.322889045612623216e-01
5.156078607646439327e-01
5.201331179284283124e-01
4.150409197788281768e-01