<?xml version="1.0" encoding="UTF-8"?>
<VTKFile type="UnstructuredGrid" version="0.1" byte_order="LittleEndian">
<UnstructuredGrid>
<Piece NumberOfPoints="5313" NumberOfCells="8293">
<PointData>
<DataArray type="Float64" Name="Temperature_@_t" Format="ascii">
2.539842450467424051e-04
2.477691441810642289e-04
1.545073079331858842e-04
2.572118807015608610e-04
1.585578472115368261e-04
1.801662917970379984e-04
2.562614999367986428e-04
1.654670402470043579e-04
2.477953486801580244e-04
5.895210386660450913e-02
7.096915009789404871e-02
4.085621114789367986e-02
5.001616156003696467e-02
6.282371395237250356e-02
3.735382230192822728e-02
4.678452997433787952e-02
6.420959921452651376e-02
3.778522332927208849e-02
1.196376263555359309e-01
1.858816704759761740e-01
1.447750393194909280e-01
1.811038707735637132e-01
1.780712763960298206e-01
2.167833612985692882e-01
1.570878775508740832e-01
1.493165089611457885e-01
6.699298575829434887e-02
7.157280186784550913e-02
7.024626507421638522e-02
6.910685509331268572e-02
6.951617376102797730e-02
6.984592815427070889e-02
7.375740322518266334e-02
7.449348435341965335e-02
7.857633955009966920e-02
7.592973180913555054e-02
7.723124199232667131e-02
8.218920788773929897e-02
8.240733560366421406e-02
8.767278520924462470e-02
8.886503825725011740e-02
9.593140439334850444e-02
2.158934443180869633e-01
2.651380395208361995e-01
9.687539583584957315e-02
1.078754121410034905e-01
1.112305746609057455e-01
1.249015615077733454e-01
1.274500614689078049e-01
2.691376054446684152e-01
4.040596335733218081e-01
7.003896161543302079e-02
1.235957698956204531e-04
7.636727695112625338e-05
3.337412831768740414e-05
1.098976785421980644e-04
7.357474831626501077e-07
3.523583109095940939e-05
1.245715059468040079e-04
1.735826391689636872e-01
2.522973989124965288e-01
2.498990378678304369e-01
1.587287904710742437e-01
4.778277401501200561e-02
3.200729232398187574e-02
1.252336876219134476e-01
1.521953851098525878e-01
1.612770389687542272e-01
1.424915416658756595e-01
1.326765874110287236e-01
4.682213329767503929e-02
1.140136591204391620e-01
1.067899451988143927e-01
7.996715956553325511e-02
6.262451755868042591e-02
3.623968577824154130e-02
1.213533496017827618e-01
1.164855000957227549e-01
1.167851737614709895e-01
1.182558359820762434e-01
5.564839308126496437e-02
8.765535401365637247e-02
7.096743719166040409e-02
1.075258584642748289e-01
5.725134363788868946e-02
1.134395058976672560e-01
1.053916335458014164e-01
9.938251909158452024e-02
6.966433418168853364e-02
8.206514468680263519e-02
9.856050612043387726e-02
7.191685064325274712e-02
1.035209872626690758e-01
9.784193421228423726e-02
8.896464192941726246e-02
8.016073359150327482e-02
9.203742170493464658e-02
8.140426820200039049e-02
9.606685982040477634e-02
9.235483926100732099e-02
8.648922474184496390e-02
8.977735846731368929e-02
8.585127880376738907e-02
9.119286506688945027e-02
8.917615894271609112e-02
8.739663005458224443e-02
8.649974112109370949e-02
8.809675307819969658e-02
8.731753487343735243e-02
8.588754486736475957e-02
8.501266044325438143e-02
8.579904691832546115e-02
8.392720564009591155e-02
8.247228288907074156e-02
8.352462517547977472e-02
8.135228877164510375e-02
7.921494397098041707e-02
8.090710022309691163e-02
7.841257649120372819e-02
7.536483831492712948e-02
7.618682998493156444e-02
7.776249598096264537e-02
7.410768333290300436e-02
7.134234787783996778e-02
6.673302137345522855e-02
7.030865334653510490e-02
6.792493745786640225e-02
5.691251151889353127e-02
4.936930224858738364e-02
4.443072936509914056e-02
5.465154129547995093e-02
4.314949242319707917e-02
3.885804846149855385e-02
3.599463786337197407e-02
2.847218595444572092e-02
2.633094313676723544e-02
2.992951168185267741e-02
2.554921772241456474e-02
2.009942054449255153e-02
4.962228643228582675e-02
1.916847805389427020e-02
1.607540494711807641e-02
1.453328219473902332e-02
4.214808490691721726e-02
3.502767295008187703e-02
2.311171625860562392e-02
3.012894353709978310e-02
2.433402050072447018e-02
1.967925478337747419e-02
1.583936073841201234e-02
3.889672002236042869e-02
3.059132055891805937e-02
2.976877391451072594e-02
2.593651198876806632e-02
2.262568587318104438e-02
1.979237042429729879e-02
3.794450688916600756e-02
3.179964446538035422e-02
2.928845075706114354e-02
2.652981420215647784e-02
2.578973116837525795e-02
3.850916360837400992e-02
3.289924642813697730e-02
2.905976121831904332e-02
2.782533745880521117e-02
4.130312142766701805e-02
3.506769221051398572e-02
3.799908583332377993e-02
4.225880669705945475e-02
4.838056921074639777e-02
4.810677734858334609e-02
5.314061323022068600e-02
4.329271089185412341e-02
5.531170757523862919e-02
6.622531924685098881e-02
6.677253351838560724e-02
6.807300533184523772e-02
6.475511032242096954e-02
6.930523293121498840e-02
7.208172146044704298e-02
7.516303414234350166e-02
7.574795384441393442e-02
7.721014450880568647e-02
7.888169428397019678e-02
7.335284031786909464e-02
7.720640537557145466e-02
7.958122711054785303e-02
8.144350576345514570e-02
8.410108747067084056e-02
8.447513416963629840e-02
8.339106457120805393e-02
8.046776902456190261e-02
8.247091496144647038e-02
8.452360029887660831e-02
8.518394289508070261e-02
8.406590174894569556e-02
8.316557470557257858e-02
8.576894779824628667e-02
8.435112806061105528e-02
8.691225423061432753e-02
8.672543275340628688e-02
8.135328058350149716e-02
8.096485024919101992e-02
8.947052593678306298e-02
8.638023105666398083e-02
9.060174149828098544e-02
7.555431986447397330e-02
8.316970207687690575e-02
7.426275044020259897e-02
9.592207873233905835e-02
9.094770037196950319e-02
9.878097736802336770e-02
8.806569699031654985e-02
6.620358501352308078e-02
7.653304184821883849e-02
6.486305959748266126e-02
1.061040273903059439e-01
1.100224604280308910e-01
1.016231636960189533e-01
1.182048473324048415e-01
8.167664897868381901e-02
9.548287083421547194e-02
5.233427197117954816e-02
6.648406587814997826e-02
5.421670935432951893e-02
1.178854776220800704e-01
1.242296484137064005e-01
1.446839966474726680e-01
7.167982515098424157e-02
1.163623220748033898e-01
9.305881658729778239e-02
3.540838608111035457e-02
5.355744104047880511e-02
1.071356557052225572e-01
1.415914728529337752e-01
5.969838676942520322e-02
1.688480235700480780e-01
1.858284699755561875e-01
1.601307432517826423e-01
8.098837492939171823e-02
1.172076051614925063e-01
3.818060604191746837e-02
1.432234274910134386e-01
5.920523712245760739e-02
3.056315639641468684e-01
2.596792794903624579e-01
1.703077135591555824e-01
1.006413705241327727e-01
1.493047210342392239e-01
2.280550394730544994e-01
2.300722533410204107e-01
4.041802077526605863e-02
2.675764081939632777e-02
3.709159364648639129e-02
1.298760726360640716e-01
1.319199885582369447e-01
6.639458677143923737e-02
8.471303105848862480e-02
9.578891986018521487e-02
1.244286691071175149e-01
1.544771124964607334e-01
1.262370345521783011e-01
2.510720598305631740e-02
5.153648562702004693e-02
4.288665274313215731e-02
9.921845417361621622e-02
7.313447297391278967e-02
1.067005799530934551e-01
1.133307403275407022e-01
1.074012957693604858e-01
4.733122874268712310e-02
9.282888729270132033e-02
6.019103287997101814e-02
7.980971941566661343e-02
9.563622958111089867e-02
1.050227325147574803e-01
9.649663937060057317e-02
6.426800948834693328e-02
8.559003725692819475e-02
7.492754843571343415e-02
8.918632903227113884e-02
9.473667667541318949e-02
9.001184217433273738e-02
7.646441996742356362e-02
8.277710177531782954e-02
8.661256937854899807e-02
8.860682098758172753e-02
8.622659286594418215e-02
8.229501663991460603e-02
8.424826539027679972e-02
8.395388552246255132e-02
8.496504518165885755e-02
8.315749754633970647e-02
8.218283165296316750e-02
8.233706222243322714e-02
8.141588690429037156e-02
8.042703057151606716e-02
7.971148141497676198e-02
7.834576891293629219e-02
7.842523951336986821e-02
7.641604574733740218e-02
7.657082941431847534e-02
7.479239940221310556e-02
7.446892564650865742e-02
7.547203921702991258e-02
7.061716767900332037e-02
6.206460406918742900e-02
6.403965405879029349e-02
6.221141374190533591e-02
6.027734662155210393e-02
6.239237013953226330e-02
5.374829636881146844e-02
4.927081788638988658e-02
4.953732719525029415e-02
5.376659491810258096e-02
4.604725264281763625e-02
4.009027190120151296e-02
4.173780638657052094e-02
4.969941281675361450e-02
3.405818101625524702e-02
4.084192123637574168e-02
4.833264329685001137e-02
3.193360766773093579e-02
4.081889241771589905e-02
4.941850815358271587e-02
3.388865152109735157e-02
4.153202806296072552e-02
4.573448816529714772e-02
5.319795188424239485e-02
3.974028589581208443e-02
4.881919391031972616e-02
5.319591544410991885e-02
6.144657484296783823e-02
6.152594452278516840e-02
6.270800494922455781e-02
4.864087492970742277e-02
5.944475565203363732e-02
6.751633749737098733e-02
7.423714558930394336e-02
7.350568359991335732e-02
7.515885715049648585e-02
6.091133701786841798e-02
7.503162565754285807e-02
7.697432810097748490e-02
7.830246874552834746e-02
7.072069944637428274e-02
5.799704963005838237e-02
7.217796944691198813e-02
6.249863706198405949e-02
7.315057795356379178e-02
7.705590276383535164e-02
7.910027268136629597e-02
8.065052564989862172e-02
7.804913504133925706e-02
7.900983742751921390e-02
8.172066879054276645e-02
8.186200856125201708e-02
8.033205171274716838e-02
7.340615580049612843e-02
8.731485653770675037e-02
6.588205943356731376e-02
5.465523615296243726e-02
5.592715433705398864e-02
8.264161783482677770e-02
8.208026254714546888e-02
8.202531641273620722e-02
8.125226740647636947e-02
8.017422907821217248e-02
8.383503486496182711e-02
8.404296745419667647e-02
8.959017691927687044e-02
1.028045398053486770e-01
7.813880344164506053e-02
9.639226493908811810e-02
6.198792651955088023e-02
3.285105979965495526e-02
8.372517551385717793e-02
8.305499236596565471e-02
8.804965309578130506e-02
9.754777751034388045e-02
1.104676053398568197e-01
1.264815464157172942e-01
1.169711402845663856e-01
8.630711096982847386e-02
1.196294274554065423e-01
5.755667168282405100e-02
8.704142590531092905e-02
1.048895970374640330e-01
9.417160907712246454e-02
1.510683730891812515e-01
1.370478746414282856e-01
1.199877074538101690e-01
1.142055476588396817e-01
1.533470495626825247e-01
1.795297579165305857e-01
1.064178969843996708e-01
1.772759428936605264e-01
1.578649186676737703e-01
1.304998759440514911e-01
8.880428258616857029e-02
2.647240556402573608e-01
3.040796295809944927e-01
1.315352361531271219e-01
3.391488770485411031e-02
2.266253947650890763e-02
1.492789434237433988e-01
2.084553103161430054e-01
2.050913545369232593e-01
1.417272451296054392e-01
1.459486079480400433e-01
2.808047133052718122e-02
1.615985378946090470e-02
1.258246545753800849e-01
1.286178689190653757e-01
9.316806950046765956e-02
8.689685608432809460e-02
6.767537674743501208e-02
4.114682447368049611e-02
5.350088603511442276e-02
1.229942863076056853e-01
1.207208868267724416e-01
1.113718636260973005e-01
3.818740657895296903e-02
9.809986255863151206e-02
7.194221861655351880e-02
5.457442950156633776e-02
1.030771766306283199e-01
1.032738815682768679e-01
1.002238909288619417e-01
5.755097075205453661e-02
8.595519292647882392e-02
7.110026281003016535e-02
9.222632116044468531e-02
9.342436989217879628e-02
9.173815056615935992e-02
7.321403172702804774e-02
8.258777291473579085e-02
8.822866654228349315e-02
8.749527294406553302e-02
8.658456626636587550e-02
8.171814172537654464e-02
8.435288902125578914e-02
8.397938101952788503e-02
8.310650182261412888e-02
8.290853865366969166e-02
8.250474428475157440e-02
8.111493600293855077e-02
8.055208580336334356e-02
7.989028174921647407e-02
7.774082021750586269e-02
8.150446987577310287e-02
7.054168820008038798e-02
7.337977937153314367e-02
7.241818612827581603e-02
7.095433478810643513e-02
6.983577285750453001e-02
7.313579651214713317e-02
6.684900870984732124e-02
6.493572148552727297e-02
6.097194326993679581e-02
6.225847164864154598e-02
6.620335218721971893e-02
5.380426262070389654e-02
5.734491653087003121e-02
6.154916258211195340e-02
6.759806333473224182e-02
6.815917548476621568e-02
4.594698477856913599e-02
7.021121836635785263e-02
6.598701711124553559e-02
4.871649628339699833e-02
5.370120118522824643e-02
6.027054302218701198e-02
8.494446695653656842e-02
8.116560827615358631e-02
7.670684243248346301e-02
7.380630350599826084e-02
7.169314261884014716e-02
9.152256945814737921e-02
1.069925505415870726e-01
4.688313946264009713e-02
5.357265088122530744e-02
6.111933764400540731e-02
9.220276340765026779e-02
8.365348902788205532e-02
8.150635154448587771e-02
7.835837176906038093e-02
7.863434242983860512e-02
8.107046861017289108e-02
8.091134803361287042e-02
1.057122480468982717e-01
1.294166700850720164e-01
1.030119124266383190e-01
1.198924088389158316e-01
1.309096921729969165e-01
1.043850335852142958e-01
1.033500640529501219e-01
1.500242775782342219e-01
1.352505939378912947e-01
1.563079418007191912e-01
1.280815396237047765e-01
1.694926652316347260e-01
5.608846302601969841e-02
8.367057020656454291e-02
5.687008612150717957e-02
6.528711956871835476e-02
6.131664186060511307e-02
6.375305530019863276e-02
6.554122644418750032e-02
7.159492379145478147e-02
6.829439662266328925e-02
7.052888503159290834e-02
4.842053103893494831e-02
8.945298924357311665e-02
8.327989525047350960e-02
8.149455216239451238e-02
8.090715651020879973e-02
8.304359724601041715e-02
9.730368962990440518e-02
9.587164534668693450e-02
9.940518656183275348e-02
8.032712752168932879e-02
7.954133761776102651e-02
7.140611895159984512e-02
7.907672491956824201e-02
2.369077273389471328e-01
2.566363997964319354e-01
5.313197050897935925e-02
5.977145033423191672e-02
6.917626505467558418e-02
8.703724184727844315e-02
8.255959191900642813e-02
9.248859711319824817e-02
7.540477946147584876e-02
7.772021471752355026e-02
7.829221565527702542e-02
7.990381888641183428e-02
6.848502345928168811e-02
8.578993775077503603e-02
8.129917223925899050e-02
7.732995411016763132e-02
2.588385676269392907e-02
4.112538836565590716e-02
2.271715726825984660e-02
1.962339348807027803e-02
1.137644947491068224e-02
3.073404334917009817e-02
3.414752849562993631e-02
3.629559242435181216e-02
3.864474030614230976e-02
2.499684695089878644e-02
5.397681975889326474e-03
1.637582818066622703e-02
4.505145608909035676e-02
5.296536964255847690e-02
3.242113322253491886e-02
3.948487413446609418e-02
2.639933026554691642e-02
1.828685192845468793e-02
6.043450197221597597e-02
1.334269375512726619e-01
8.617854381523960827e-02
7.188273541203041295e-02
4.783464551380129520e-02
3.771268650471790856e-02
3.007579855361797519e-02
6.639803923014050979e-02
6.571631133806966896e-02
5.895917547824346128e-02
4.913238558433537240e-02
4.190668197009827373e-02
5.983981883328545748e-02
6.011691448714288899e-02
5.611428130831682543e-02
5.138338227827014132e-02
5.781172653805332490e-02
6.029959911908300274e-02
5.561036129747846946e-02
5.700979744113005704e-02
5.179478142600883739e-02
5.620664850958608655e-02
5.495054881162508148e-02
5.460349918537862890e-02
5.536255761557146854e-02
5.714959540544947703e-02
4.952753737811135121e-02
5.295517932434552766e-02
1.268303180790281981e-01
2.064436965544357849e-01
9.986343189134699871e-02
6.016401206891458520e-02
5.216486804805869210e-02
5.494608528616417437e-02
5.106577658560196992e-02
1.039865394269614551e-01
1.036984883229595117e-01
1.008829416861992123e-01
7.479611045359735311e-02
8.306542824173079875e-02
2.909878957300890065e-02
7.681950145162259880e-02
4.488260988260911466e-02
6.665534793363525612e-02
5.075406554767904893e-02
5.400866961858178522e-02
4.723060881567423680e-02
7.085559942018219981e-02
9.170958115333759098e-02
8.125354325281899937e-02
7.526787876320337189e-02
5.494195264331563910e-02
5.625315302545972479e-02
5.729831185713747665e-02
5.658718337062803444e-02
5.993421431498949931e-02
6.051999280102247220e-02
5.612457495377008720e-02
5.797428126936918225e-02
5.775701696636269256e-02
4.975718083772998068e-02
5.371188238971732337e-02
4.974585204519378634e-02
5.405044145557944685e-02
5.261794049831822889e-02
5.503223308697634264e-02
5.229519374891458683e-02
5.082799728968671882e-02
5.133000351858091337e-02
4.594219161860145506e-02
6.767025056348972833e-02
7.602284851119819886e-02
8.420106335536541031e-02
5.703506593004729203e-02
5.453976676330353490e-02
6.064213226489924280e-02
5.702164865426850165e-02
4.959007070814711038e-02
4.528996125724341071e-02
4.597654928559952864e-02
4.729368757991014860e-02
6.506698836786523055e-02
5.548687915420548455e-02
5.502675440297188914e-02
1.895864800393301519e-01
1.539734235180060251e-01
1.392395010057527194e-01
7.314971631631085602e-02
7.769995824036199372e-02
8.565342202139754335e-02
9.889015758060495931e-02
1.199582630093164182e-01
2.150687568419948015e+00
2.061133634725269559e+00
2.144215244186055358e+00
2.097346665783111685e+00
2.019535073101055289e+00
1.981756291136572479e+00
1.870357349573879890e+00
1.841933708708753503e+00
1.517376012771442850e+00
1.278724928621772117e+00
1.021832294041567613e+00
1.646696968658131865e+00
1.738641632844071250e+00
1.585679768513928112e+00
1.454135450168331456e+00
1.824135465277638035e+00
7.955638803345290722e-01
8.479537842728813724e-01
1.097965790335325931e+00
1.453417525051151626e+00
9.748253326660418772e-01
8.433776722665070613e-01
8.555154710557421049e-01
1.756076863516165432e+00
1.862433942841729362e+00
2.065649217345165489e+00
2.112836184410334717e+00
1.976077991807298595e+00
1.907638023309767394e+00
1.348634627452742762e+00
1.251288840305603944e+00
1.055980292384680830e+00
9.795235378036529772e-01
8.753702604124078412e-01
8.543420751524011258e-01
8.041620892840710688e-01
2.133900490159406971e+00
2.089552102077656404e+00
1.856179013964841751e+00
1.675658268795804595e+00
7.638369675936881320e-01
6.604646150634699842e-01
7.192203313763845252e-01
7.824765166552962725e-01
7.691623882106221055e-01
8.307817189934644242e-01
1.868117884940594386e+00
1.591626448726674026e+00
1.388399183998588304e+00
1.279485777305945593e+00
1.012450397417414383e+00
1.366296481646353200e+00
9.684502022062911886e-01
2.129778878796901420e+00
2.073948544218043644e+00
2.071765512496314798e+00
2.010988071885183359e+00
1.969628988088725663e+00
1.925154278807027053e+00
1.843530018950694238e+00
1.752131365582387801e+00
1.848758572002667133e+00
1.847934611104703695e+00
1.782359597038287058e+00
1.527590152767164922e+00
1.343027266666749098e+00
1.643294918516961189e+00
1.527852374116120071e+00
1.110311814801174579e+00
1.041085190044541475e+00
8.547106091891373270e-01
8.837202660730862913e-01
9.123088026362200509e-01
8.627300060733024134e-01
9.438828219325021696e-01
1.884115605439537378e+00
1.585995409153101665e+00
1.860641811709386806e+00
1.884100004240489623e+00
1.036245770239045072e+00
9.214392641059148126e-01
9.362930201533380403e-01
8.973093510113678839e-01
1.111256674835451319e+00
1.207515030496535413e+00
1.895499039590155865e+00
1.944625393275544623e+00
7.996500108783433092e-01
7.980861009117447002e-01
7.619448083738755706e-01
7.216097992153341911e-01
7.459387296324404559e-01
7.928799780123580998e-01
8.162704932072148978e-01
1.658339180674784030e+00
1.498046633815588446e+00
2.026706436878030537e+00
2.056245568722136152e+00
1.338709935662688144e+00
1.193181163707461190e+00
7.879128475364148843e-01
7.630148058852408433e-01
8.517499678321575063e-01
8.763190373258820109e-01
9.744741911626376707e-01
1.006933796644039480e+00
6.999951885071499236e-01
6.713002848471291140e-01
6.284704965966494417e-01
4.983464401531845223e-01
1.982575907685948380e+00
2.073922052307492603e+00
1.844066670310974931e+00
4.982849460324135782e-01
5.650445500218891359e-01
4.941598771276142221e-01
4.488208333386659032e-01
4.805650248501371902e-01
1.657446343163354818e+00
1.555192645281188613e+00
2.098950296019007400e+00
2.040684670572053605e+00
1.947870155383634394e+00
2.130367940719923414e+00
4.040393880741417476e-01
4.512851689474456363e-01
3.709984204415325282e-01
4.581853325541631050e-01
1.417860084007294352e+00
1.200653281177011422e+00
3.941571300236820785e-01
6.826358357534343391e-01
4.839980419300130565e-01
1.762143731758957443e+00
1.634396302888697861e+00
3.026388817019680100e-01
1.068837355076347029e+00
1.333555664060321444e+00
1.251050842243860206e+00
8.935424553352679933e-01
1.025017408121940088e+00
6.202013231047477371e-01
6.882001155656152225e-01
6.247366581981801392e-01
7.517786164583063480e-01
6.203398007749451049e-01
5.510543555387205084e-01
1.755853857052779299e-01
2.621214269799813576e-02
2.306109159540258025e-01
5.808570873655476419e-01
7.321816649412025146e-01
7.468112652577137967e-01
9.709273338663398922e-01
2.747880695918026861e-01
3.139819756384054639e-01
1.176033045929860466e+00
1.527883303649945290e+00
2.623838390945303911e-01
1.999356212179842496e-01
1.779893919998763563e+00
1.816563593783326880e+00
1.473863574862901704e-01
1.655241029937121536e-02
1.888184135927173823e+00
1.954803358432376736e+00
1.998732163475343881e+00
2.102555906923793128e+00
2.143784011309445958e+00
2.110388406636624303e+00
1.859153303711192695e+00
1.734574321627868398e+00
1.435907310834851902e+00
1.336005658739725099e+00
1.129863853026134013e+00
1.041725332272082305e+00
7.513264603901437244e-01
9.219395525663910407e-01
6.771502273467832067e-01
6.992983430215609086e-01
6.419664794430696153e-01
7.183090822773501305e-01
6.986329910987729708e-01
8.706015002316533913e-01
9.440554606944663307e-01
1.215601808921091598e+00
1.645702746651742210e+00
1.619662424894552366e+00
1.851426006568929195e+00
1.900924683704960927e+00
2.062406734209937920e+00
2.112653741431814503e+00
2.185069570533576755e+00
2.149404562599951607e+00
1.982472932343654293e+00
1.890292709045999109e+00
1.616056549527978836e+00
1.522542670215746519e+00
1.296937579578650190e+00
1.237181867674347568e+00
1.080429475644242743e+00
9.899551188335897756e-01
8.894338280084078674e-01
8.435847505839971783e-01
9.008379568965007023e-01
8.044290773312859910e-01
9.332535099043715032e-01
7.845853795704118561e-01
8.279085378507461401e-01
1.027578025309306975e+00
1.209517151771019039e+00
1.265126523964001937e+00
1.621036075524847186e+00
9.807604432744644329e-01
7.888000503261785035e-01
1.072700386721511023e+00
1.388307326409722542e+00
2.054743758376325502e+00
1.660973059407413022e+00
1.697526814833898001e+00
1.746245987370435682e+00
2.156238099721039969e+00
2.154002734370430439e+00
2.064610223509970588e+00
1.973968402903119923e+00
1.896105665991530742e+00
2.048872884904658243e+00
1.015304697089689512e+00
9.600375343670861650e-01
7.607526336204927242e-01
2.142612538883264417e+00
1.839156521242693021e+00
1.638541242183250368e+00
2.195745600566926026e+00
2.068477783416176496e+00
1.951634622617781645e+00
7.225856225192567317e-01
5.057387965286308518e-01
6.394282073075754358e-01
4.261352931976100100e-01
5.366484327806255727e-01
1.453429359241768637e+00
1.980828615936774728e+00
1.385314336755959497e+00
6.899969355090243006e-01
1.759345123745653883e+00
1.334440203419845039e+00
2.119040981477565977e-01
3.803847229252613205e-01
4.624389849916893946e-01
5.457503145129958266e-01
1.188112215970392516e+00
8.943071404423654780e-01
7.242825547826479138e-01
2.184158193103658441e+00
2.045180580775212587e+00
1.945511419532700792e+00
1.114333351827259788e+00
1.178544712852819920e+00
8.729499889928963308e-01
7.452092511530595820e-01
5.964461376069026821e-01
6.161227864180297553e-01
5.612246206030022666e-01
1.259588216186012577e+00
1.066514678690135831e+00
2.032521226913543977e+00
1.608765557058894569e+00
1.402361694218425381e+00
1.387095025625111777e+00
2.810762608571921173e-01
4.412979674266990782e-01
8.228221993286882752e-01
5.139341817888046782e-01
6.215267967631152857e-01
7.430336200986568107e-01
5.171278641242530449e-01
9.563648812412148814e-01
6.244054153411108254e-01
9.500204764293788129e-01
7.827292619245536098e-01
6.801639095662469492e-01
5.747647513678132425e-01
4.532255403516266545e-01
5.003588117138267899e-01
1.014597231847910175e+00
8.958252888796649493e-01
1.105318146388811096e+00
8.559036957913753740e-01
2.070714811703044500e+00
1.989247351530289976e+00
2.069287950390537034e+00
1.763408891398099421e+00
1.660129976615807745e+00
1.253598033333941375e+00
2.075209058390292682e+00
1.671192629031404753e+00
1.567815653020735667e+00
1.441036977385301343e+00
1.294500763952094458e+00
1.200835293762513745e+00
1.175396551147803059e+00
7.987175306417432230e-01
4.138557527025831240e-01
5.049625625395539608e-01
7.887333469873269998e-01
5.974583556579360355e-01
6.884561765226192565e-01
5.653828761478080223e-01
2.437675451611624744e-01
6.765543385976843238e-01
7.763680724032764324e-01
5.919538551949991012e-01
6.046958276842951951e-01
4.999121175389106830e-01
3.689774538420305672e-01
8.447823754514072192e-01
7.455925667569854864e-01
6.177189688323555528e-01
6.442423883104854143e-01
8.862109194013441105e-01
5.029369885347136915e-01
6.077730884320283744e-01
2.164117017007652244e+00
2.054275283811068942e+00
1.970703147856174509e+00
1.868002422018134601e+00
1.847394035234828369e+00
1.150988063421933161e+00
9.507407871706179403e-01
6.274585675570092391e-01
1.520074736529709369e+00
1.358153349253917286e+00
1.372465928843644489e+00
1.133241768725547383e+00
1.045562528640425981e+00
9.674415260742096345e-01
7.284998080654150332e-01
8.326508960577465590e-01
6.477343361415803802e-01
5.695393618012138948e-01
5.119200913090903304e-01
5.604659303743740884e-01
7.449224002221405128e-01
6.377960670729324599e-01
5.921876729109529780e-01
2.265130566687289793e-01
6.541934382324700037e-01
5.714279923569316466e-01
5.207710874662448974e-01
4.186091667695753804e-01
7.187669052303915507e-01
6.413958451072944156e-01
3.030521418406689205e-01
4.766912242527849286e-01
1.872729683000209588e+00
4.279026142802011545e-01
7.266755721244411159e-01
5.387141226928905402e-01
4.065291372966953753e-01
8.270612445032776705e-01
1.244340892143188437e+00
9.327088354318175956e-01
1.061103197598439296e+00
1.924984632226818704e+00
1.089243785929688624e+00
9.741198674462564489e-01
8.714691565339053314e-01
8.207850175274353788e-01
7.278388452153613519e-01
6.359087305187458572e-01
5.743654110837523863e-01
5.619676460723300737e-01
5.838929024983310345e-01
6.649752956825136785e-01
6.226211321861259140e-01
3.967992542845676929e-01
5.626473052738485414e-01
5.111685772958125540e-01
4.551278796440086927e-01
6.076951287816444447e-01
5.589450016128661991e-01
4.275835013623403014e-01
5.327021853871710677e-01
2.735372440199729804e-01
1.313070380534840098e-01
6.612606274603993750e-01
5.833907181806041731e-01
4.808500665452485334e-01
3.731329628331648829e-01
6.619613784176442417e-01
7.315327385519188041e-01
7.632901319861965517e-01
9.663439608089758881e-01
8.457808494898964025e-01
1.535889147075818029e+00
9.119747916829584744e-01
8.219166876060817195e-01
7.349426781590701063e-01
6.482428086001783551e-01
5.815910471110884439e-01
5.836626680441303616e-01
5.932550629827604283e-01
6.392684110909643280e-01
6.020014941145466203e-01
4.554741796848609803e-01
5.184698184413705224e-01
4.839995881920397536e-01
5.455268652306701771e-01
5.190200803392477358e-01
5.425903537213372374e-01
5.839507777754741058e-01
3.157623948929664248e-01
2.593385218099229506e-01
2.523640618382352319e-01
5.516327023498280857e-01
4.262882200469562677e-01
3.557860614366442076e-01
6.148184952585161733e-01
6.657599507732795407e-01
7.587438310039288369e-01
1.264608425564523353e+00
7.723739684203715372e-01
7.026809882969372589e-01
6.188620735961684050e-01
5.900058565917482012e-01
6.031947421459112890e-01
5.881584456840076580e-01
4.841908858449098796e-01
4.973610860200418093e-01
5.116525927332316037e-01
4.990264404012451083e-01
5.859380447524179525e-01
5.928890715220945795e-01
3.127041473940853633e-01
2.980581315131427544e-01
3.055659995325843425e-01
4.486383936635035541e-01
3.583736605933012243e-01
5.146662323610452505e-01
5.793369124483869204e-01
7.131601634226923947e-01
7.943509774893235953e-01
9.363177959257468208e-01
6.677193604215178047e-01
6.308351003455816564e-01
6.051105799523113227e-01
5.780428188082950003e-01
5.680736722976695852e-01
5.703497979360644399e-01
4.903954996726177518e-01
4.887876670849596872e-01
4.912472227156068905e-01
4.860942605785261161e-01
5.914227049438433026e-01
5.909287498175009867e-01
3.369041704693266914e-01
3.299629309383028675e-01
3.273488388060707965e-01
3.861056702413428465e-01
4.358548986569114048e-01
6.046275344748587299e-01
6.127998807607040188e-01
6.181479876859056199e-01
5.739613322028501718e-01
5.919807281869297055e-01
5.962746408369392626e-01
6.594666729076356093e-01
6.189281462940231515e-01
6.865310425791366633e-01
6.968444766112690258e-01
6.132840569768290839e-01
5.998682356528298731e-01
5.397267147563077350e-01
5.307100671533193648e-01
5.515319585546041292e-01
6.040600215073913537e-01
6.267571722595095540e-01
5.482889208139176684e-01
6.368167211167816699e-01
6.375756348346158786e-01
5.653898245622125396e-01
6.225241241516499269e-01
5.813918954784063065e-01
6.328907773841114803e-01
5.871193038422207744e-01
6.178314712641438389e-01
5.885073732974468452e-01
5.958956432454604046e-01
6.274569562540488477e-01
4.833735028444797188e-01
4.768047337716704304e-01
4.746040602504453254e-01
5.820395281818939726e-01
5.799245528572798403e-01
3.608708903322408457e-01
3.388421265921144343e-01
3.406477202827729034e-01
3.609771201407112606e-01
5.967605975756964387e-01
6.025714380489697319e-01
5.881191665868178431e-01
6.202397644081677486e-01
6.407250043073523527e-01
3.420487756347156960e-01
3.461076996100149739e-01
5.792933648524488666e-01
5.648219000408452040e-01
5.093136119099120895e-01
4.902627356903240807e-01
5.151722343654580039e-01
2.095425278896006827e+00
1.846354289206595833e+00
5.929371890166816872e-01
6.239064161803937747e-01
6.220486993883467264e-01
5.825225344733697685e-01
6.218319023123449751e-01
5.770763836757101251e-01
5.859850241445476726e-01
6.231408158786074791e-01
4.876123625069701539e-01
5.469746895841890444e-01
5.353765134762464850e-01
5.765873471325657640e-01
5.496736638763765059e-01
5.647683391883773218e-01
4.686700829306420513e-01
4.601456672197218323e-01
4.568654535592179822e-01
5.648366984782073885e-01
5.510303539371945725e-01
3.353638323599861248e-01
3.204298080780514368e-01
5.842146284617931729e-01
5.698003184286731804e-01
5.668503108063491780e-01
3.417230829259789715e-01