<?xml version="1.0" encoding="UTF-8"?>
<VTKFile type="UnstructuredGrid" version="0.1" byte_order="LittleEndian">
<UnstructuredGrid>
<Piece NumberOfPoints="5313" NumberOfCells="8293">
<PointData>
<DataArray type="Float64" Name="Temperature_@_t" Format="ascii">
2.026943017763311184e-04
1.978816478904460571e-04
1.233814898769723374e-04
2.054247426904145157e-04
1.266337073552778047e-04
1.439005624684675552e-04
2.048408610479171544e-04
1.321737120482724458e-04
1.978963271726752406e-04
5.283701806066787299e-02
6.128762326804381572e-02
3.698918723643205425e-02
5.319996140738243035e-02
6.728780185076979614e-02
3.810214609166278493e-02
4.068338749871552168e-02
5.272352956195958812e-02
3.346043118018138252e-02
9.989503735377171234e-02
1.554881564348542800e-01
1.208357318493052113e-01
1.981994567179141964e-01
1.959658602362633062e-01
2.146091964234528859e-01
1.844597152515927152e-01
1.824966200602333999e-01
9.727540711565219045e-02
1.023448251490831767e-01
1.056537345774881953e-01
1.050541583139984886e-01
1.328960402613395542e-01
1.000826376834497711e-01
1.044250116244584969e-01
1.094629773681930068e-01
1.172215733809995053e-01
1.095085258548904733e-01
1.168584521244364627e-01
1.263247322095770453e-01
1.273179384383466006e-01
1.362277264901187168e-01
1.368483947266944667e-01
1.465708566650295586e-01
2.111756381058051690e-01
2.376859133344157715e-01
1.454776296611854647e-01
1.573079308480326566e-01
1.575713760774760941e-01
1.689362385505495390e-01
1.682734960152986459e-01
2.400493886783617581e-01
3.101713143279465346e-01
1.008104035555963257e-01
9.870642235955827035e-05
6.100348603563523987e-05
2.663130928942319080e-05
8.777414628183965875e-05
7.212400154420071696e-07
2.814388122170626070e-05
9.949807295624869656e-05
1.664126501321052110e-01
2.540951098535047525e-01
2.364067407736555881e-01
1.544184331379467312e-01
4.333658826546914200e-02
2.917406785012139486e-02
1.255436560771906740e-01
1.430539557600080114e-01
1.484060662869819691e-01
1.361659330726791850e-01
1.288629036128866312e-01
4.277035788108981412e-02
1.041079278551239606e-01
9.330524662236427957e-02
7.163098105639198465e-02
5.701467315440503225e-02
3.327834584438039284e-02
1.186294561571187706e-01
1.119308980384102897e-01
1.093716454361733786e-01
1.124233804432523409e-01
5.114764529584891334e-02
8.073736213452209487e-02
6.538065382535110381e-02
1.021558232267517213e-01
5.284288331110455206e-02
1.093092611559046551e-01
1.003981006211800281e-01
9.332691018997113508e-02
6.452171440632223365e-02
7.634965085459882728e-02
9.315512028161816727e-02
6.684013416988122958e-02
9.866133453413050702e-02
9.270292990023343283e-02
8.346506002713001415e-02
7.482954532514950186e-02
8.677295909592137868e-02
7.618293651100027652e-02
9.095877037147358235e-02
8.724055946630442093e-02
8.127200944954694750e-02
8.465235263944238808e-02
8.073799860381372651e-02
8.612932328984847230e-02
8.417016083804422510e-02
8.240925389011745372e-02
8.160015665745506963e-02
8.318700099834099027e-02
8.244919786442198029e-02
8.114486531548763260e-02
8.037091996803803762e-02
8.109729679717916917e-02
7.942699242036771468e-02
7.814607897069553166e-02
7.907892224432706840e-02
7.715579656217760873e-02
7.526036393705046179e-02
7.676486958418429762e-02
7.454676010045799273e-02
7.182605337998786144e-02
7.256138455490278305e-02
7.397106872130676525e-02
7.070341241262578791e-02
6.821372690607942213e-02
6.399320812000539038e-02
6.728216473456594127e-02
6.517842382856602057e-02
5.471806209198011584e-02
4.756405309064407061e-02
4.282937857588633990e-02
5.257701035300737374e-02
4.164781932312933144e-02
3.753010046366299368e-02
3.479038538214827836e-02
2.752767324387977305e-02
2.547011741639440205e-02
2.895147308595981753e-02
2.472471659571229621e-02
1.944760822538189882e-02
4.785581463712310774e-02
1.858161132524830533e-02
1.556609100873998681e-02
1.409379544392742184e-02
4.074383636313202994e-02
3.388483595888756167e-02
2.238385991218373727e-02
2.916651865506517810e-02
2.359433635396349441e-02
1.909524463854891940e-02
1.538571778934915563e-02
3.766437881084874068e-02
2.964205912483195912e-02
2.887323812345971713e-02
2.517223271626110176e-02
2.197624346913109455e-02
1.924129245523236928e-02
3.680175530026493641e-02
3.086585689818678591e-02
2.845205534953756596e-02
2.578602878606677321e-02
2.507957663625955819e-02
3.741072300134776901e-02
3.198710832320666303e-02
2.826065275223894196e-02
2.707217925550574333e-02
4.019355126136751194e-02
3.412984595626015333e-02
3.700944351993416814e-02
4.118619845157361209e-02
4.719129890969459701e-02
4.696744755147407024e-02
5.195362211389121382e-02
4.224427532975668503e-02
5.410287773065155376e-02
6.489082410647588339e-02
6.551883228468882714e-02
6.685118752695036470e-02
6.348112642364910074e-02
6.809888566048888370e-02
7.094569613608014969e-02
7.410193223308697563e-02
7.470398645356624012e-02
7.620181250037474929e-02
7.791934602373537522e-02
7.224425379154254812e-02
7.619609437830666965e-02
7.863508037765239156e-02
8.055008109094473345e-02
8.328646977380220473e-02
8.370053179512210173e-02
8.255673622924838972e-02
7.954362993648808611e-02
8.160185355004734298e-02
8.369852029721240594e-02
8.441532606157994834e-02
8.337568570057153627e-02
8.230973282853783213e-02
8.495178869151093215e-02
8.367325604043845955e-02
8.610604933727110388e-02
8.596606906111398105e-02
8.077864605090005756e-02
8.041598846172313964e-02
8.862304764448443450e-02
8.568546602869846207e-02
8.975703458391839917e-02
7.510166812447620355e-02
8.262653514171656999e-02
7.388724528243982570e-02
9.491627171554842257e-02
9.018641195000888511e-02
9.771192341545580085e-02
8.750528008877019037e-02
6.595295710278246959e-02
7.619918594103564091e-02
6.466188893510990687e-02
1.045736802917063973e-01
1.085252344207193742e-01
1.006943254401766463e-01
1.167940670180033641e-01
8.140573347303764473e-02
9.497251237654194544e-02
5.223462467413702431e-02
6.636765296177260520e-02
5.415136850628170240e-02
1.155837596237437592e-01
1.219672154275928955e-01
1.428270242366891374e-01
7.169517915925598117e-02
1.156022119754861605e-01
9.289753687055388176e-02
3.542548950594129331e-02
5.360007342683996423e-02
1.043740109045276920e-01
1.385871529275487513e-01
5.991423055433324485e-02
1.661356044921423192e-01
1.840354513050994067e-01
1.593553875268155506e-01
8.131249157662234772e-02
1.172866436943071633e-01
3.828147601127837585e-02
1.378148401141662538e-01
5.976905690293597695e-02
3.003992576534980641e-01
2.600583736493149445e-01
1.708423525206542726e-01
1.017184539988811864e-01
1.688535369564702071e-01
2.612446179994432627e-01
2.556450718877714690e-01
4.238537499220304539e-02
2.776190093450437574e-02
3.906964198101934432e-02
1.466829360520300329e-01
1.531034090757775190e-01
7.288796136480285570e-02
9.781913067630033931e-02
1.077736655098975316e-01
1.392272073004585387e-01
1.746142121272054315e-01
1.412702986407045891e-01
2.640054110539455726e-02
5.514920174701408440e-02
4.557145082066006714e-02
1.102633661179666519e-01
8.011610641827324186e-02
1.185676500652312892e-01
1.266760396989656812e-01
1.193058439802186510e-01
5.044714751902903971e-02
1.025021338837809881e-01
6.498350866114997737e-02
8.750051187979973610e-02
1.056453020779354462e-01
1.164232433703183273e-01
1.065962951155661892e-01
6.955551694736332446e-02
9.403602869247848495e-02
8.174457982448575522e-02
9.814037793825586276e-02
1.045775932090211857e-01
9.908068627942241691e-02
8.342882421373719326e-02
9.073026475692937132e-02
9.515030489380808809e-02
9.744506529556974661e-02
9.469803060436246533e-02
9.015283263532136715e-02
9.241345131065309415e-02
9.207346922917782062e-02
9.323967322974423266e-02
9.115013740227852213e-02
9.003298044653069987e-02
9.021072525625882521e-02
8.914911084067567160e-02
8.801647227968792397e-02
8.719287269058112466e-02
8.563202477655418310e-02
8.572231589159966247e-02
8.343229434658974708e-02
8.360655665299746020e-02
8.157211369123784639e-02
8.122191094589858995e-02
8.223853564272647076e-02
7.692922139415550586e-02
6.753409785988036262e-02
6.965057474157972106e-02
6.761999829816130181e-02
6.547166551380229071e-02
6.773969194475694400e-02
5.830609796243088616e-02
5.343476781133876113e-02
5.368804111904874887e-02
5.826747202041324819e-02
4.987112198193049961e-02
4.341805716773805557e-02
4.518351868621984374e-02
5.380001365714470046e-02
3.685681087590007843e-02
4.418858175056480930e-02
5.227753191453456127e-02
3.453786068103718160e-02
4.413883959103635096e-02
5.341503444364292807e-02
3.663444485161083952e-02
4.488934878045469645e-02
4.941684542596621460e-02
5.745962995247022587e-02
4.293796678649765969e-02
5.273007481226087839e-02
5.743091870341678062e-02
6.631661958336204643e-02
6.637460956975758941e-02
6.764328603866250067e-02
5.251733387033622608e-02
6.414629412562568300e-02
7.281384804313337233e-02
8.005315370868963665e-02
7.925839163396398990e-02
8.103021371380808580e-02
6.569814368154386353e-02
8.089487484860397037e-02
8.298379143009837478e-02
8.441288468565159853e-02
7.800723201240730709e-02
6.482197669329951839e-02
7.936841124431735783e-02
7.007422107179724080e-02
7.887298837571218857e-02
8.306970743469280216e-02
8.527227820533861413e-02
8.695629646504961230e-02
8.508069537808918281e-02
8.593586699053835931e-02
8.850106633485980978e-02
8.859155342446102532e-02
8.746332276481880164e-02
8.099229275761829494e-02
9.449579444865276179e-02
7.387654402239333951e-02
6.243724958539750847e-02
6.388681222647109303e-02
8.923347301732621750e-02
8.856644493869884893e-02
8.846391999761933633e-02
8.758650013521264432e-02
8.642102015430701278e-02
9.062655691242831046e-02
9.067523954284237298e-02
9.626412452048467572e-02
1.090506873394176957e-01
8.617366374300831910e-02
1.037005555279793406e-01
7.078095231238452911e-02
3.908528481027410961e-02
9.021329726957302841e-02
8.946774436889545767e-02
9.452946334601966538e-02
1.035903373620614271e-01
1.153063185595321338e-01
1.310255792785747497e-01
1.231766505474024553e-01
9.478142084003228496e-02
1.266374565560096921e-01
6.888811290569156476e-02
9.348193473753042826e-02
1.101425694141477951e-01
1.003249804547552970e-01
1.542904377293639606e-01
1.398824180714310639e-01
1.232165528763559115e-01
1.176318112738613808e-01
1.576017535512761469e-01
1.815226013559710638e-01
1.156086649409395622e-01
1.805265316991820079e-01
1.593621222926406289e-01
1.320460999111089107e-01
8.992088422035499073e-02
2.670566516315276973e-01
2.993855606696085858e-01
1.306482655375698076e-01
3.009798246459416404e-02
2.039367329731819889e-02
1.425883567251814699e-01
2.156116482677829793e-01
1.942814169562710747e-01
1.364505347896874388e-01
1.421746829512274268e-01
2.514193837215362992e-02
1.453451986612075246e-02
1.158714907438076896e-01
1.141008940887914130e-01
8.185524399361936154e-02
6.971031279784162260e-02
5.801950292463555620e-02
3.664399711037504698e-02
4.721075726913567111e-02
1.159285678403775832e-01
1.152379322167615960e-01
1.064350719831293618e-01
3.432668494740796772e-02
8.983691247703287641e-02
6.445556546382838481e-02
4.898046512405352521e-02
9.635484529155788347e-02
9.746769606360157490e-02
9.481005588236715576e-02
5.208401420896389966e-02
7.900958028528015653e-02
6.474586063108678236e-02
8.593169861870934845e-02
8.757668370275051295e-02
8.603363073959607865e-02
6.706640293351971704e-02
7.637900455280714762e-02
8.224945947963180348e-02
8.172829250988389305e-02
8.090016440210151538e-02
7.569569323211600143e-02
7.855589140588473129e-02
7.841036444135979222e-02
7.763432342886947279e-02
7.725968275964717469e-02
7.700249025745244114e-02
7.580437124269907845e-02
7.533782003137633188e-02
7.467104677633186471e-02
7.277110673285633324e-02
7.635030110289164895e-02
6.610030353326430685e-02
6.882986823308508140e-02
6.798291513475787640e-02
6.664625887372915836e-02
6.565357713643593662e-02
6.881583222531817423e-02
6.293566321001066444e-02
6.119537401411682259e-02
5.741420923227284756e-02
5.872360281309851882e-02
6.248308963911468339e-02
5.081529356797517133e-02
5.419084549764588421e-02
5.822445603044417578e-02
5.851377903866343544e-02
5.930089877309489138e-02
3.584709853281561193e-02
6.130776058032476328e-02
5.426764259183972094e-02
4.610273404790193180e-02
5.085108608381840034e-02
5.712332482608593887e-02
7.841910688528304363e-02
7.476535335468983967e-02
6.971666094425610360e-02
6.678170534033923966e-02
6.519629430927786906e-02
8.533097677479485610e-02
1.053750597621185559e-01
4.443797861715147179e-02
5.082374008432254120e-02
5.803190196687611768e-02
8.885548675498994298e-02
7.841150177369239638e-02
7.643605803822113576e-02
7.295240306224236304e-02
7.345880935111290255e-02
7.681585130465250211e-02
7.676499808572455341e-02
1.262535091651472985e-01
1.478873425432957189e-01
1.168703985306855930e-01
1.303413606073808573e-01
1.382027255286974177e-01
1.063975749787122033e-01
1.106632167279810036e-01
1.667233604961540772e-01
1.598670912414751344e-01
1.813401142099677066e-01
1.280096265564801272e-01
1.884689658827698733e-01
6.764588280576454282e-02
1.121802955319588235e-01
5.404974013316804493e-02
6.211069170887141555e-02
5.836255517641727314e-02
6.072300601814503013e-02
6.247384929244895885e-02
6.827262151511387378e-02
6.516824307861218690e-02
6.736950775125966073e-02
4.596401790199385745e-02
8.683409821848017685e-02
7.935902012474375933e-02
7.790845098901238996e-02
7.733544557999466607e-02
7.961028232042202668e-02
1.096459067914334062e-01
9.709219976372956973e-02
1.046471417666343662e-01
7.696614690956772586e-02
7.615861532473897078e-02
6.824926714127034499e-02
7.564126809445040345e-02
2.594573174540827920e-01
3.101739912153030354e-01
5.052399164042822161e-02
5.697045505206421723e-02
6.605658930354731118e-02
8.483692337290275887e-02
7.947676995194306870e-02
9.265218331909109983e-02
7.217048835587221156e-02
7.440268547182581071e-02
7.501289397449509289e-02
7.668028443555456597e-02
6.550813960356373367e-02
8.351422807746103349e-02
7.822781580179812011e-02
7.411675411364683497e-02
2.683242453456861215e-02
4.355322938942613603e-02
2.281740858094366900e-02
1.994627000448939702e-02
1.139825090284496585e-02
3.267869376441034229e-02
3.868745315844429600e-02
3.963193609878778306e-02
4.659982868348599983e-02
2.565397070461979470e-02
5.293630873783587709e-03
1.642275880543204655e-02
4.870780572582315143e-02
6.084220570921351073e-02
3.370788369730048223e-02
4.126925826484687670e-02
2.670590529223159509e-02
1.817003458863776511e-02
6.116635174765320399e-02
1.226346319379387900e-01
8.094219889661462275e-02
6.936680057076197170e-02
4.841537073535717717e-02
3.806482528914751501e-02
3.014111104298019053e-02
6.278128539997465674e-02
6.285335399579476678e-02
5.759596083548893658e-02
4.841340044506584062e-02
4.161148707050280060e-02
5.715238430734409514e-02
5.726684763834235387e-02
5.413398208328613903e-02
5.006954091984834598e-02
5.514817373537009987e-02
5.746799578776735917e-02
5.318192790450620294e-02
5.428297443722491372e-02
4.977182112589096513e-02
5.344930589419284728e-02
5.246084509249326205e-02
5.200152055466526063e-02
5.262544397911070315e-02
5.419877049394025703e-02
4.707488450438989530e-02
5.025230992823401244e-02
1.037498575953626906e-01
1.634711492495390106e-01
8.085537170805012774e-02
4.620777282085805626e-02
4.934176757447501088e-02
5.184883726693745309e-02
4.839074253126997988e-02
8.584030357718264170e-02
8.912442867558036108e-02
8.605854216093447584e-02
6.665055956267046389e-02
7.266930732502750734e-02
2.469651093472278666e-02
6.328481841107670702e-02
4.220473954405126737e-02
5.977030438321257605e-02
4.778230490408479081e-02
5.071273763668542739e-02
4.461472932652140594e-02
6.288671990197972073e-02
7.732642419041217685e-02
7.059998522704342971e-02
6.303940025160503779e-02
5.034286630343852431e-02
5.146215516954397162e-02
5.260860943317834104e-02
5.168090671944613329e-02
5.465385184010839587e-02
5.477369537241832259e-02
5.107219717300268830e-02
5.259546191097275170e-02
5.251605423940713252e-02
4.660120027735307341e-02
5.018105059884647723e-02
4.633327941021991164e-02
5.023044791413727034e-02
4.842894004643333306e-02
5.084971127296194354e-02
4.795113026785965266e-02
4.706719823109734024e-02
4.717055747141755961e-02
4.315370315705040205e-02
6.019773397317046415e-02
6.646506660705929492e-02
7.186462404498641932e-02
5.190774197099026765e-02
4.981001812202057177e-02
5.460218946967533571e-02
5.167693964645894700e-02
4.539290578937578424e-02
4.230637256416642372e-02
4.269856621413242737e-02
4.363405347883519969e-02
5.806664492903664682e-02
5.049377903939586409e-02
4.972915307110593874e-02
2.018312051942822427e-01
1.801983140569691777e-01
1.746621577868016084e-01
1.090800995693932962e-01
1.194616366136966451e-01
1.316022334171033648e-01
1.455419978088428601e-01
1.609946860142412728e-01
2.147780073110743704e+00
2.081585304744532294e+00
2.131868227701496199e+00
2.077947012868050169e+00
1.992951860324243096e+00
1.955882134020691332e+00
1.855401585536772036e+00
1.833100930422992159e+00
1.551841824495971967e+00
1.318836711775774440e+00
1.008976162984838165e+00
1.725039365934130764e+00
1.795670985683102350e+00
1.605867505378608895e+00
1.505594069592641082e+00
1.824026111430748109e+00
7.488697011933459491e-01
7.656550176480610981e-01
1.037600062260998879e+00
1.350982811709944720e+00
9.653270883591772433e-01
9.014290433486596976e-01
8.604690630586125932e-01
1.701275839096998865e+00
1.827658097114934987e+00
2.091794337819343319e+00
2.139012693190371905e+00
1.990709617316950952e+00
1.899668988426109317e+00
1.441520075538153645e+00
1.360202330163039042e+00
1.166609968508196538e+00
1.115579731226805649e+00
9.902627899928415633e-01
9.511523529391890941e-01
8.828510831793644487e-01
2.161525417450590680e+00
2.112585449131664461e+00
1.873137056835476377e+00
1.683876041803729962e+00
6.647233433973427363e-01
5.886781974552767194e-01
6.277413107730257513e-01
6.656059580204483073e-01
6.695450501671876831e-01
7.176603249630159054e-01
1.832811885393137885e+00
1.507080105328706399e+00
1.387364482849721803e+00
1.266728114844776876e+00
1.020119965012774133e+00
1.423140710526777042e+00
9.546273538720962959e-01
2.127262680172024911e+00
2.095033226115043945e+00
2.053032759558615972e+00
1.986430168554296438e+00
1.944128012556165519e+00
1.907290149520224132e+00
1.846669274731969290e+00
1.769229641338840420e+00
1.813269462870083171e+00
1.830677772437208084e+00
1.710069736033101195e+00
1.426286504546519174e+00
1.238305124379931454e+00
1.718778938608319873e+00
1.624965308050037249e+00
1.087858860460855892e+00
1.028361191302561650e+00
8.540949977856723274e-01
8.783889078337947520e-01
9.063078905246430006e-01
8.467208688143310624e-01
9.264313475260231856e-01
1.882497061879022437e+00
1.622248113223413224e+00
1.856435333396591947e+00
1.891799990124550801e+00
9.669311255414847484e-01
9.263691536149806227e-01
1.065190501137427859e+00
1.026163333618846263e+00
1.240773285203339960e+00
1.314531410426060365e+00
1.903214200150602275e+00
1.950429260736600723e+00
8.363669488305967015e-01
8.592631162181403326e-01
8.598145468003433045e-01
8.296712165355555335e-01
8.678665649879196975e-01
9.066063977196336943e-01
9.433939924413344835e-01
1.581730117077818853e+00
1.397059875851460076e+00
1.985361683259317056e+00
2.026307997054179300e+00
1.226308272213978201e+00
1.046166749457290823e+00
5.978144901325118665e-01
5.686992366254610687e-01
6.706093846615546195e-01
7.016280249457561569e-01
8.211988936968409591e-01
8.591401510432942201e-01
5.157579321700439534e-01
4.881143434138522919e-01
4.500498523809113305e-01
3.650935094430119987e-01
1.973646174005939002e+00
2.054787440171542023e+00
1.862174595376145936e+00
2.434551569617873779e-01
3.138647498742926922e-01
2.249931389969264117e-01
2.019585624480886576e-01
2.453098693416065346e-01
1.723845097230887413e+00
1.656392079538289375e+00
2.063598740513383767e+00
1.999803096027033211e+00
1.942838334629642061e+00
2.107941444050912772e+00
1.978846585478084008e-01
2.710031072180245637e-01
2.301353820391189298e-01
3.366133076611546038e-01
1.564324880732266720e+00
1.430449782674507508e+00
5.476459849839016014e-01
8.202768796402355456e-01
5.022700600670567672e-01
1.711694388004474598e+00
1.572659254832290854e+00
2.641143638035395869e-01
1.347163195785222811e+00
1.290639752015513952e+00
1.204752894531216700e+00
8.313613833921098539e-01
1.020726421778595405e+00
5.407905086998672228e-01
6.008351893663534948e-01
6.068538671674711393e-01
7.807171996350300569e-01
5.486364938133853064e-01
5.311088829563300751e-01
1.422722260847901488e-01
2.446663149587966629e-02
1.863752058794131972e-01
4.951018818467559091e-01
6.096616467947264528e-01
5.229540459543118303e-01
7.839261812262501294e-01
2.203919438375338824e-01
2.505087964232313724e-01
7.846059417928737956e-01
1.120548302966530185e+00
2.082796791079788434e-01
1.571590357326527743e-01
1.471762985872224982e+00
1.549352692400229436e+00
1.164651491255557503e-01
1.641103807909028572e-02
1.714563484143651451e+00
1.842304165665512139e+00
1.936554769977330004e+00
2.089576956493388593e+00
2.181880887017869863e+00
2.149595272660944634e+00
1.948356328601814846e+00
1.857279362856656624e+00
1.558838521262061905e+00
1.470946175876607587e+00
1.247627357497357981e+00
1.174302716722559481e+00
9.574414866551363978e-01
1.011041567220738902e+00
8.224075715931660202e-01
8.571616474754665260e-01
7.661907721054268539e-01
8.298569826165278496e-01
8.099765545866123295e-01
9.559423002198988994e-01
1.062122500761807808e+00
1.359373262023436446e+00
1.735719609250706563e+00
1.715898518329711964e+00
1.903846321820021670e+00
1.942726701778633602e+00
2.082913533172259246e+00
2.128556726595653092e+00
2.187706873578553868e+00
2.150254530610722359e+00
1.972753434974446662e+00
1.873127162271225110e+00
1.602050508993959843e+00
1.506301663803639945e+00
1.290464165087531034e+00
1.229822304605328931e+00
1.078067950255698682e+00
1.007725684780382824e+00
9.196721829697643846e-01
8.643127030982685755e-01
7.842052543227003847e-01
7.189075109627387494e-01
8.305325564020273887e-01
7.993191625379378884e-01
8.537230474362982324e-01
9.351272118690692192e-01
1.129090905642735398e+00
1.208584172732331430e+00
1.578265192650382787e+00
9.817340166062343831e-01
7.804947855618067365e-01
1.060501407677558294e+00
1.378112661932915817e+00
2.047680838409913218e+00
1.627092001741336169e+00
1.702035189693039463e+00
1.752846533735516799e+00
2.158435757516922848e+00
2.162920443410084825e+00
2.075405018056754702e+00
1.985767931215430826e+00
1.906638271223965120e+00
2.072241314004980239e+00
1.055282123221874757e+00
9.650542365641293641e-01
7.616281537407825208e-01
2.158032237790059149e+00
1.878662399670705474e+00
1.703639730832437360e+00
2.187092505879117965e+00
2.046878217461748140e+00
1.926499792687934365e+00
8.850597085661346952e-01
5.368771123797640987e-01
6.047188362299554809e-01
3.769661347150775055e-01
4.786851089783021318e-01
1.358772522319114495e+00
1.995852263800117266e+00
1.469773385398934096e+00
7.586712506750982188e-01
1.814286248888280939e+00
1.414365174616025289e+00
2.178294849477161732e-01
2.542722114620847296e-01
3.722093045568526937e-01
4.582239672845219158e-01
1.086664788840237206e+00
8.199128592817402916e-01
7.288378151854987275e-01
2.213731826037907968e+00
2.070229673366702272e+00
1.951661669842365665e+00
1.208593339928628163e+00
1.268218504736821961e+00
9.968294299972922934e-01
8.552786306950244111e-01
6.343041969642861932e-01
7.307346583760777614e-01
6.475933875406634233e-01
1.344561820370846261e+00
1.157800873721820167e+00
2.060143595074420020e+00
1.624297241034349026e+00
1.406744539255233351e+00
1.439048990722017418e+00
1.030716245599183761e-01
2.606467719942467398e-01
7.097914229650865714e-01
3.661688650668823986e-01
5.101626559303545916e-01
6.226784401328253615e-01
3.480180522385162845e-01
7.210546885178816812e-01
5.737679582498244057e-01
1.050394365706669664e+00
9.138129207702061496e-01
8.124804532161161719e-01
6.950057631606439967e-01
5.213856730968714492e-01
6.224646181351153329e-01
1.111398976285993490e+00
1.004169577075395559e+00
1.165223391690080934e+00
8.962011739439186275e-01
2.083876635398627997e+00
2.029054827444745079e+00
2.054077028441060104e+00
1.694898837406832337e+00
1.570235961352856258e+00
1.132345527994468748e+00
2.107436997754981167e+00
1.731421098546495063e+00
1.583927719017380609e+00
1.448117903267548412e+00
1.291055366050238851e+00
1.184617675258721636e+00
1.152905869246677151e+00
7.877880635528466957e-01
2.294414226264774592e-01
3.224538927135315869e-01
6.619400367831684839e-01
4.380443421063952014e-01
5.406659755820529822e-01
3.973849635160381921e-01
2.550229248386176595e-01
8.085509698212015595e-01
8.984403988889091419e-01
7.180017088366100753e-01
7.371893313189248342e-01
6.265095075369552236e-01
5.128262536863125165e-01
9.647606179674559357e-01
8.769658140294477322e-01
6.289458261191295252e-01
6.261771155475986950e-01
1.009200752892227548e+00
4.579501212458017001e-01
5.701382867081588035e-01
2.163000842042793970e+00
2.035678535904220432e+00
1.946765659966547934e+00
1.814494905852675366e+00
1.826067685774620086e+00
9.487950948455380340e-01
8.287067011917790271e-01
5.623744292089629671e-01
1.591131637026292900e+00
1.446238318423991531e+00
1.371875459753151949e+00
1.113444030133280638e+00
1.007252992267258174e+00
9.284618595781503059e-01
7.035280021892372782e-01
7.999091398005406806e-01
5.816525206951909110e-01
4.831799811527645594e-01
3.199569572839546794e-01
3.801613386287345242e-01
5.945743751243852682e-01
4.856588467665108877e-01
4.270871880048419111e-01
4.542786507853397993e-01
7.853599801234939504e-01
7.184884316696765749e-01
6.641641971549304690e-01
5.688827796476438881e-01
8.514549297672823203e-01
7.873171401343997955e-01
2.796008326058272431e-01
3.608359672501925131e-01
1.874150683629021819e+00
2.340921778208156223e-01
7.425429312751600230e-01
5.829387359396298596e-01
4.697500359719502527e-01
9.688754712900379262e-01
1.340927283332189024e+00
1.055085438229061756e+00
1.175905560114775206e+00
1.933206836382088678e+00
1.055477146849093106e+00
9.250478430109135841e-01
8.053232270316190711e-01
7.622473186088812858e-01
6.503334600673112975e-01
5.386500531348576981e-01
4.574170445920214267e-01
3.867025077887586981e-01
4.277727903487025252e-01
5.486885273849267941e-01
4.739550658599718802e-01
5.646381204960483347e-01
7.289765886389417693e-01
6.820540893075196509e-01
6.235014358785873068e-01
7.692009345143175914e-01
7.249661355846355182e-01
2.690582075119178351e-01
3.982774172467414830e-01
4.345888215380127040e-01
4.015049335781837314e-01
7.501835616501750792e-01
6.540904216799083848e-01
5.777148216762852950e-01
5.067726752422774261e-01
7.918532732513556827e-01
8.756827967074354291e-01
9.134056072334261200e-01
1.101813342003551188e+00
9.906700964084945715e-01
1.449152783916303200e+00
8.486684351287808736e-01
7.442035676054932214e-01
6.406092973634428533e-01
5.443902070593444886e-01
4.720337062353553437e-01
4.313181128331367575e-01
4.490940727636310581e-01
5.090934325829716833e-01
4.682691010344134930e-01
6.285985350088250101e-01
6.864628904190189784e-01
6.558941841977646847e-01
7.102066966127766889e-01
6.819258302677301264e-01
4.015552426267766650e-01
4.654746192408713013e-01
5.170552714381798642e-01
4.855790127863618411e-01
4.948153573817071216e-01
6.688469022293159760e-01
5.721680996258593499e-01
5.611575673319755264e-01
7.644041203194399392e-01
8.328697830743807540e-01
9.196177583348916773e-01
1.134660924934600468e+00
6.934972401144702259e-01
6.185712110213605897e-01
5.321910524519714025e-01
4.519442750268076736e-01
4.795073218755713240e-01
4.601823910776614568e-01
6.526289137193751477e-01
6.604440903260527795e-01
6.711315929668246749e-01
6.552174610709438074e-01
4.680064118407166740e-01
4.971389149934892226e-01
5.415869620752163938e-01
5.329748383857806360e-01
5.390415992148348545e-01
6.275135246313372495e-01
5.771303455585129472e-01
6.994171252607273015e-01
7.666412175446657429e-01
5.340486694019741520e-01
6.254678126388878434e-01
7.545707814677363734e-01
5.915609943594359876e-01
5.513688200634485614e-01
5.199665161592784690e-01
4.531613052723215684e-01
4.513631775105999555e-01
4.505425239321434461e-01
6.507276157867856181e-01
6.417056095187906317e-01
6.420043988085482045e-01
6.346032364136906523e-01
4.966216617641866504e-01
5.055150224735891484e-01
5.612110496093856149e-01
5.589369661259091515e-01
5.542358422991631173e-01
6.034771718148514985e-01
6.526572126125946838e-01
3.987268847048702769e-01
4.032788394909721519e-01
4.068781618784285126e-01
3.803904813617024483e-01
4.076445509226139796e-01
3.986740933394186115e-01
4.748962916541944468e-01
4.325268407733294795e-01
5.027670814107458863e-01
5.191652085447816534e-01
5.345531934976636146e-01
5.199762385654682628e-01
4.287326733851418159e-01
4.224254747127761389e-01
4.369302752978779791e-01
3.935176185259277593e-01
4.073706111945349928e-01
2.587431694311729258e-01
3.072289381810941467e-01
2.975805588524580991e-01
2.601482210099802517e-01
2.985189532583202854e-01
2.692451597268352148e-01
3.077843883718262008e-01
2.782818031731546515e-01
3.131818876369180105e-01
2.870542969573698922e-01
3.005134319285782674e-01
3.262063680876606808e-01
6.332231699804453662e-01
6.194516224575511432e-01
6.142025712891683309e-01
5.006120706899995776e-01
5.029811583684802301e-01
5.932008670033134257e-01
5.587290335201104963e-01
5.555158092359523403e-01
5.771076170540312411e-01
3.942815946463400500e-01
4.087601490986025876e-01
3.807692634959184974e-01
4.297943866824071035e-01
4.528806215961864723e-01
5.529785794576930202e-01
5.576102371724125373e-01
5.057169268259934514e-01
4.947417638027725162e-01
4.057353457922209250e-01
3.911184558878002537e-01
4.102744283219541543e-01
2.075377578128669853e+00
1.862887840728407962e+00
3.756338189058429644e-01
3.954998889586489597e-01
3.805377019963671059e-01
3.537610271002229467e-01
3.637806305984575550e-01
3.339867407624729223e-01
3.247231427814430416e-01
3.449772282705183546e-01
2.025741741909873606e-01
2.481601528747385821e-01
2.374378177692637037e-01
2.994876374535992980e-01
2.568755254606759353e-01
2.773367348916389030e-01
6.060705052721925279e-01
5.900082454349832028e-01
5.832737499747573384e-01
4.935720380397957685e-01
4.865277057715062248e-01
5.416659945564199496e-01
5.153267232442084733e-01
3.849509234452533346e-01
3.620118979579233232e-01
3.818613911995094035e-01
5.463427804282042777e-01