<?xml version="1.0" encoding="UTF-8"?>
<VTKFile type="UnstructuredGrid" version="0.1" byte_order="LittleEndian">
<UnstructuredGrid>
<Piece NumberOfPoints="5313" NumberOfCells="8293">
<PointData>
<DataArray type="Float64" Name="Temperature_@_t" Format="ascii">
2.075917691779906673e-04
2.026337379375292482e-04
1.263477143572816497e-04
2.103578075932303459e-04
1.296746695081780153e-04
1.473544009985045965e-04
2.097254706880115045e-04
1.353433664875965451e-04
2.026499780466723820e-04
5.038271877350039563e-02
5.746976097727389543e-02
3.444586792437877298e-02
5.476173032473246466e-02
7.057948163533521446e-02
4.024641869107187936e-02
3.895403441852652443e-02
4.940696316625654838e-02
3.067280129891410134e-02
1.007561672338418562e-01
1.569885568707012347e-01
1.208948011590044447e-01
1.776370297556693345e-01
1.758291126743005972e-01
1.922258370107259307e-01
1.659275144831688364e-01
1.641878013623611632e-01
9.641505561436990168e-02
1.016742863846615136e-01
1.018337361736936092e-01
1.009058281772623328e-01
1.200028715956326930e-01
1.006937438365272247e-01
1.052004183620590810e-01
1.096459049648296075e-01
1.163003019269280292e-01
1.102010017767897365e-01
1.152377367275461972e-01
1.227821861597744868e-01
1.226149768497605957e-01
1.295789380809328484e-01
1.294187872819222707e-01
1.367184974052132462e-01
1.892511475223640494e-01
2.132016552581623148e-01
1.354742776452400321e-01
1.444040107064360756e-01
1.444039606759966732e-01
1.532080421151932881e-01
1.526761754449880160e-01
2.153403580534167250e-01
2.804653843740766428e-01
1.017702852260591734e-01
1.010776100832723207e-04
6.246603892011721852e-05
2.727538830734644053e-05
8.988125590775358125e-05
7.122877590168797830e-07
2.881923825469734634e-05
1.018858454226994080e-04
1.700629701380010073e-01
2.640591268711456330e-01
2.405306635640552526e-01
1.581510781073385274e-01
4.119421759848805598e-02
2.774143167027283419e-02
1.303135250809889234e-01
1.451507132604003547e-01
1.515441837600126351e-01
1.381639844170135800e-01
1.312455364919947465e-01
4.100996087996999079e-02
1.039042883374930448e-01
9.254531127872173135e-02
6.979312588413441598e-02
5.510133411205731663e-02
3.197262474383401332e-02
1.208219471199868944e-01
1.130252009922869255e-01
1.096555052309302197e-01
1.131911957987622175e-01
4.952988822417166842e-02
7.960148124339941345e-02
6.387848366721457505e-02
1.024600165582230660e-01
5.130112298679171540e-02
1.103035521951786502e-01
1.006915574237449706e-01
9.298939942591893937e-02
6.313122065240538150e-02
7.528045093280211209e-02
9.295952044483850318e-02
6.554150960013488403e-02
9.888555805923066044e-02
9.254862706252550697e-02
8.276400266401071071e-02
7.378073288068667801e-02
8.628973793716673835e-02
7.520607785690262836e-02
9.072416884043704721e-02
8.682234081795744962e-02
8.053750772661369406e-02
8.410525963347714740e-02
8.000226715406262568e-02
8.567484722757623405e-02
8.363513498071561969e-02
8.179367738171465507e-02
8.096638280884960182e-02
8.263338864643680892e-02
8.187283753272570075e-02
8.054491382657469334e-02
7.976483405051036646e-02
8.050758065690591381e-02
7.882413216635526798e-02
7.754040726183096532e-02
7.847701754565060417e-02
7.655067079794114493e-02
7.465448524033012345e-02
7.615965046975801955e-02
7.394129767332689729e-02
7.122201330289511245e-02
7.195693327377596094e-02
7.336565144237773561e-02
7.010035282043519667e-02
6.761399205327553452e-02
6.340784385718135907e-02
6.668415729219034915e-02
6.457705938178592842e-02
5.419964769290909479e-02
4.710060881437532626e-02
4.240891851467045587e-02
5.207474751550218023e-02
4.123170622558365583e-02
3.715187096900694763e-02
3.443615235122052948e-02
2.724635912989569614e-02
2.520808814353577010e-02
2.865340768404608593e-02
2.446873002735972316e-02
1.924686743163933622e-02
4.738320119948025155e-02
1.838442307649691340e-02
1.540361852345850137e-02
1.394337460551645785e-02
4.032821244336864258e-02
3.353563596453947721e-02
2.214941005355932496e-02
2.886295929932691101e-02
2.334310745873433013e-02
1.888972086679943999e-02
1.521750600477620938e-02
3.727088635754513546e-02
2.932935881394139327e-02
2.856438404181407820e-02
2.490051985187886549e-02
2.173634667868977813e-02
1.902857154624999769e-02
3.640830243043576692e-02
3.053222989856330463e-02
2.814093632528897465e-02
2.550193033906961865e-02
2.480126638654552712e-02
3.700151967560529748e-02
3.163330575027863828e-02
2.794702393694088738e-02
2.676994374785071282e-02
3.974384953025833500e-02
3.374732192271814868e-02
3.659083389762984861e-02
4.071650753365037984e-02
4.664769995298724548e-02
4.642023746921595390e-02
5.133839135049977215e-02
4.175535750530347950e-02
5.345817640189051007e-02
6.410167771657611369e-02
6.470849846443545161e-02
6.601629811927103852e-02
6.270445619692870121e-02
6.724256316337527684e-02
7.003596251098648251e-02
7.313228800525613249e-02
7.372281908697955743e-02
7.519183086322916987e-02
7.687625003394719936e-02
7.131018749689864433e-02
7.518617460043552914e-02
7.757796501142866230e-02
7.945687813328550231e-02
8.214655578826225713e-02
8.256944900840082480e-02
8.142964106518499334e-02
7.846810935490816652e-02
8.048764467696274683e-02
8.253919154189862106e-02
8.326416531913824470e-02
8.229454816209254286e-02
8.117749646044010448e-02
8.375338076322981495e-02
8.259660474334064306e-02
8.488132817976977440e-02
8.477325710662576841e-02
7.984220996501253942e-02
7.951357702084820012e-02
8.729620106348544295e-02
8.453997241781276151e-02
8.839718337437414697e-02
7.443750105454341459e-02
8.166138084398086305e-02
7.325578753710815239e-02
9.328619995915789220e-02
8.886444522182729289e-02
9.596157512942110612e-02
8.638933149354621754e-02
6.556529132760954837e-02
7.553275526402404572e-02
6.432728003041286724e-02
1.023526412531693269e-01
1.061216086598325004e-01
9.893121122214319774e-02
1.141476841327570962e-01
8.065183004143412770e-02
9.367363267272026117e-02
5.214847176416990276e-02
6.607779377359188078e-02
5.409751164675963980e-02
1.123689027541215496e-01
1.184547128859535503e-01
1.389163811645675317e-01
7.140564612899083508e-02
1.134583582925480505e-01
9.188574522418503643e-02
3.555614085846055955e-02
5.370304266199987103e-02
1.006477580639308506e-01
1.337855350099212692e-01
6.012244546601221845e-02
1.605643596076612722e-01
1.785651144686693226e-01
1.555737802648950452e-01
8.093941963031468789e-02
1.156135626430421920e-01
3.874527532077635256e-02
1.306712323509099383e-01
6.046669229353934111e-02
2.890438901144913308e-01
2.538324671831705404e-01
1.670509879818740939e-01
1.010722971217933724e-01
1.626538903896782573e-01
2.452970029398109930e-01
2.476661523854715719e-01
4.380133025072872194e-02
2.879894959852566730e-02
4.010333664014502364e-02
1.424280724332461778e-01
1.475907509211117075e-01
7.350361300567655187e-02
9.659029424727308411e-02
1.060883621593553261e-01
1.354348358392110652e-01
1.677212659209089962e-01
1.369848430466042155e-01
2.705749879920445883e-02
5.610182982656772982e-02
4.640081588057701212e-02
1.083568665492582184e-01
8.001905770848274924e-02
1.159698863606973829e-01
1.228275545594895574e-01
1.164671052587336608e-01
5.114700580889497417e-02
1.009259040309859190e-01
6.531001636130934207e-02
8.683282603398413679e-02
1.037844356404307999e-01
1.137049117283615296e-01
1.045874756872930550e-01
6.962695099186247405e-02
9.289858088922785251e-02
8.128217232315636254e-02
9.669043758853783366e-02
1.026582405398271114e-01
9.751846646218580161e-02
8.285891719439317238e-02
8.971385503415739426e-02
9.383137883435359317e-02
9.596112357728620035e-02
9.335856851420872016e-02
8.912646837022294988e-02
9.122128777599942950e-02
9.083064914052535466e-02
9.193987423036592554e-02
8.997143376928840031e-02
8.883963055718717416e-02
8.900009249187970650e-02
8.797228024195057061e-02
8.685605383042097061e-02
8.604669778392552704e-02
8.451433267832514362e-02
8.460324501782549855e-02
8.235325612269302209e-02
8.252495127128813002e-02
8.052660019938692737e-02
8.018030805619966173e-02
8.119293977305205856e-02
7.595287272652220811e-02
6.668510398517317472e-02
6.877913958987631748e-02
6.677810147035816157e-02
6.466115397790271613e-02
6.690474908771623652e-02
5.759245368818276256e-02
5.278205948148443488e-02
5.303647574824357780e-02
5.756100025180684726e-02
4.926988532506331592e-02
4.289441213102836159e-02
4.464118566078963818e-02
5.315486070264376778e-02
3.641572969395436010e-02
4.366154259422563855e-02
5.165645987540307127e-02
3.412733237702905709e-02
4.361598003126433698e-02
5.278606415499439292e-02
3.620183520338453309e-02
4.436068947292607506e-02
4.883722703519795261e-02
5.678928457494687027e-02
4.243441534236081641e-02
5.211462598394236284e-02
5.676463954111730936e-02
6.555084897863946991e-02
6.561148264742261427e-02
6.686686681400394461e-02
5.190710432471170449e-02
6.340625314178494065e-02
7.198017822949950850e-02
7.913831468027678062e-02
7.835341120884653510e-02
8.010647543709044360e-02
6.494436251820305539e-02
7.997188421737828901e-02
8.203713131936446468e-02
8.345000808677539850e-02
7.697448792993602518e-02
6.388995263786079182e-02
7.834336335975770893e-02
6.905278602844894253e-02
7.797234027307674287e-02
8.212189835510746994e-02
8.429918055729948567e-02
8.596404694847098460e-02
8.404075292826836130e-02
8.491997682259672109e-02
8.746107785166357118e-02
8.753068307824443672e-02
8.639561379220726811e-02
7.991305119306145455e-02
9.338128846901672109e-02
7.279518843285232022e-02
6.144087070485083901e-02
6.286449370485638899e-02
8.819812528091275361e-02
8.755193181828159477e-02
8.744959133358304326e-02
8.658657793917386158e-02
8.543493798324447441e-02
8.957375649307910970e-02
8.963391238592774424e-02
9.519066260839498250e-02
1.079442042572752447e-01
8.501757050395199189e-02
1.025146390808238106e-01
6.963478916350332448e-02
3.835293157399402575e-02
8.918563472580585960e-02
8.845066340347847167e-02
9.348192522135366500e-02
1.025367840496448912e-01
1.143018149047475562e-01
1.299515918213209331e-01
1.219827783340632493e-01
9.351615127166200414e-02
1.253217654698548233e-01
6.748490374994003949e-02
9.244144017974485761e-02
1.091333736136885640e-01
9.927588131409510741e-02
1.531987091052622318e-01
1.389179017830629304e-01
1.223128367399697880e-01
1.167454952810223212e-01
1.563730838647282850e-01
1.803664852099814697e-01
1.140906513059530836e-01
1.791964733024910272e-01
1.584048035157946677e-01
1.312483744290886545e-01
8.936627732811619484e-02
2.652052614185402835e-01
2.984038887396140982e-01
1.300172746392276590e-01
2.859838643944407482e-02
1.925173859401928950e-02
1.510436893115764123e-01
2.346294520547565210e-01
2.053216357930857106e-01
1.442892659899041863e-01
1.510351078860369678e-01
2.409046253498845977e-02
1.390177141807191936e-02
1.216636350875446720e-01
1.210623408385213123e-01
8.419219550944367914e-02
7.151187642569527270e-02
5.771987392735378197e-02
3.554677250641562897e-02
4.629034121002491980e-02
1.214784064569094796e-01
1.208732552221592760e-01
1.113950027207952082e-01
3.341664632616273695e-02
9.272754729186977185e-02
6.493325800037479112e-02
4.846662270108165194e-02
9.993095617264391439e-02
1.012769310890734992e-01
9.840152863315951293e-02
5.179809282969727313e-02
8.086846313042649059e-02
6.535719194498407214e-02
8.854081645019384883e-02
9.043772855434793756e-02
8.880672507655157366e-02
6.790857303562176928e-02
7.809891995507084461e-02
8.459241958658308969e-02
8.410287100930766147e-02
8.324220454693244398e-02
7.740509803668134403e-02
8.063505859441298662e-02
8.057963872025562801e-02
7.977971641149239623e-02
7.928644312540658601e-02
7.907831769424113200e-02
7.785833722333558582e-02
7.737679650331055758e-02
7.667806936725517220e-02
7.472630388095047316e-02
7.839682631301823912e-02
6.786861913047256833e-02
7.066545427515560918e-02
6.979026355511201707e-02
6.841468520497702432e-02
6.739093603360002405e-02
7.063212130478954687e-02
6.459469094267551725e-02
6.280420993620250414e-02
5.892614096863158651e-02
6.026468221559014293e-02
6.412082435515754908e-02
5.214508689600066971e-02
5.560882533916147036e-02
5.974641874231102767e-02
6.151829175704606051e-02
6.229572428015128782e-02
3.860771500372767867e-02
6.440799232402433239e-02
5.805652754755982747e-02
4.730691405455782206e-02
5.218000467521142355e-02
5.861661205948779513e-02
8.141635514574352417e-02
7.759016126046536233e-02
7.253220614445908543e-02
6.951928104562903055e-02
6.778241241894293612e-02
8.857726142557605098e-02
1.078845545507240988e-01
4.559894632244198415e-02
5.215330367695755753e-02
5.955184938107183773e-02
9.131616885389801097e-02
8.103643580815690639e-02
7.895742718844982189e-02
7.545692701406413183e-02
7.591408501496016425e-02
7.913993125285423424e-02
7.906040160696489738e-02
1.248194592862908320e-01
1.470737477421008577e-01
1.164221345715871492e-01
1.307572102716386686e-01
1.394129292449978741e-01
1.080661184812262560e-01
1.113396679473568351e-01
1.665167229065844245e-01
1.581966138633521535e-01
1.798770061575693247e-01
1.307692221677335676e-01
1.883314649983785782e-01
6.673941925162459043e-02
1.097709748518858053e-01
5.546750794079779306e-02
6.374335061549009362e-02
5.989878005541450501e-02
6.232364857830036131e-02
6.412382742075636854e-02
7.007837850441187011e-02
6.689604669365775691e-02
6.916068519694544559e-02
4.716696156394484946e-02
8.905476833207454090e-02
8.167837852712270252e-02
8.009427400409584175e-02
7.948759310653788490e-02
8.181443840999536032e-02
1.093337256027649557e-01
9.871664160944589039e-02
1.056179575919131280e-01
7.907047178606281534e-02
7.824299274795200321e-02
7.006750923245519402e-02
7.766461063549265353e-02
2.589121926488985870e-01
3.042693755360947327e-01
5.185021685506652905e-02
5.847445118627940530e-02
6.781031206419532720e-02
8.689988948411110636e-02
8.158978887904858035e-02
9.439463973737635683e-02
7.410665245005436386e-02
7.641052133518010103e-02
7.703859736836925209e-02
7.874450582215661298e-02
6.725830045115374634e-02
8.555429832892059994e-02
8.030074416012017435e-02
7.610777820436077923e-02
2.961673533893017726e-02
4.911570235523335382e-02
2.612586033438237670e-02
2.206776832276692926e-02
1.268340790255536796e-02
3.531530409652323260e-02
4.161550839230030580e-02
4.116714526189042128e-02
4.740605822385997314e-02
2.780572156658496497e-02
5.834196741365971911e-03
1.797123277835984551e-02
4.855655947722130328e-02
5.842461935049551858e-02
3.537287384053176137e-02
4.208300107345393920e-02
2.839332710332861248e-02
1.970092694521724183e-02
5.907342197152024715e-02
1.123353747685548742e-01
7.668385135316287127e-02
6.630794924610955432e-02
4.813038358413264384e-02
3.896082921125638282e-02
3.159840569839848790e-02
6.027421141504383378e-02
6.052852677821946026e-02
5.601972849591900505e-02
4.798451387695833875e-02
4.204123925759856162e-02
5.533397599364912184e-02
5.541902967262000296e-02
5.274024380953910851e-02
4.930091810775204947e-02
5.348522258373894500e-02
5.573526926403888498e-02
5.164592859342830716e-02
5.266349176545332550e-02
4.846520323987250217e-02
5.186128574965827298e-02
5.094069218150601430e-02
5.046750872252284831e-02
5.106651287847667475e-02
5.259863437248161327e-02
4.569004907058896170e-02
4.877099811875107438e-02
1.061046000514570958e-01
1.717476885193463254e-01
8.314760665503170833e-02
4.836704638651184718e-02
4.789053562679279619e-02
5.032614869592598461e-02
4.696777813635898136e-02
8.748059944549391176e-02
8.744764858372497396e-02
8.557216195002735615e-02
6.454238209401445825e-02
7.124243937982707719e-02
2.566443424662889425e-02
6.487898024526457530e-02
4.023284585851692741e-02
5.801291404025235576e-02
4.638099979004467466e-02
4.922670528275367718e-02
4.330505883941715428e-02
6.142844866246043728e-02
7.787344229314678568e-02
6.974900175204357122e-02
6.429043050458177477e-02
4.887648180403033477e-02
4.995930755356853964e-02
5.107082550051918191e-02
5.017690493022249759e-02
5.305703420850148982e-02
5.312317260316229417e-02
4.946691864137185007e-02
5.105894333819145647e-02
5.096341162862767088e-02
4.523701122397667113e-02
4.871171188682149600e-02
4.497817930013994075e-02
4.875984387639958895e-02
4.701626695500463887e-02
4.936138515786729630e-02
4.655759163647209958e-02
4.569166668822802896e-02
4.579840603032715035e-02
4.189044394129728260e-02
5.883762041181615082e-02
6.551435864285345967e-02
7.191215142240153790e-02
5.040676108804351130e-02
4.836796482192511765e-02
5.313962880431720437e-02
5.021898125699061216e-02
4.407721887354335011e-02
4.106977294815215840e-02
4.145168119505499710e-02
4.236207136919151184e-02
5.669964789820147039e-02
4.905092042074192527e-02
4.836467219212995522e-02
1.810064174435419282e-01
1.620951465297920668e-01
1.578560086381123606e-01
1.086833501143985720e-01
1.161612467542183641e-01
1.247080205980893725e-01
1.347852180913692299e-01
1.464598624657074133e-01
2.139203288434495143e+00
2.079452612539734790e+00
2.119358008844569596e+00
2.061932781242848289e+00
1.968488190195845755e+00
1.926767952487453694e+00
1.806999885839001063e+00
1.779769574641747676e+00
1.475295329892424512e+00
1.249973062749634600e+00
9.755279770919086380e-01
1.735996042958131813e+00
1.801995064943778146e+00
1.538384952540217121e+00
1.424591002934946671e+00
1.766965273636091460e+00
7.187924840317703179e-01
7.473514523093282014e-01
1.066832746453440395e+00
1.392688705511709202e+00
9.830089650961867376e-01
8.989528868267843142e-01
8.856545752848821174e-01
1.724480349931472034e+00
1.842503250206791288e+00
2.076136756829806362e+00
2.121823068966830927e+00
1.983760432047862121e+00
1.903574587931702089e+00
1.451227264345466672e+00
1.371278075968484833e+00
1.171421028631262073e+00
1.116231254714354026e+00
9.877408279559732884e-01
9.541175382151284579e-01
8.838855156820939474e-01
2.138689010271166424e+00
2.087228169028284341e+00
1.845224281257829224e+00
1.652980479560881122e+00
6.410972716771489166e-01
5.655535751723079763e-01
6.041052328312280784e-01
6.604821273247648561e-01
6.504143725627912209e-01
7.143731624117510837e-01
1.847255475344436126e+00
1.538169763627488029e+00
1.361575673918332896e+00
1.242111286172967732e+00
9.997257928399665428e-01
1.367376267899114151e+00
9.401935842415395372e-01
2.123228751382198354e+00
2.097405594461171141e+00
2.045599068804861531e+00
1.973987209631239859e+00
1.926045584713374392e+00
1.881716476941875715e+00
1.807522917012089225e+00
1.724450491723906520e+00
1.823947820151432531e+00
1.833431674003596523e+00
1.736939944924427381e+00
1.465791249174601019e+00
1.284535648605879432e+00
1.733567406176480974e+00
1.644842207098994535e+00
1.067884567823375930e+00
9.902194366210547161e-01
8.196958004527215014e-01
8.470156457378522630e-01
8.729533719982661699e-01
8.172401850198750539e-01
8.967630968426238969e-01
1.847002874881000789e+00
1.572223789451701714e+00
1.852362998829377494e+00
1.878893904360550149e+00
1.002631663557687514e+00
9.432797776027798120e-01
1.076185266265897056e+00
1.039950370201444541e+00
1.259479357283031620e+00
1.332013939545966474e+00
1.888203560924885061e+00
1.926724526638390556e+00
8.600433803973397406e-01
8.792192743748616923e-01
8.740037773396535092e-01
8.320121290979226591e-01
8.729321377661586334e-01
9.177950570707903433e-01
9.505415550974514183e-01
1.547702063594286637e+00
1.363382494711135484e+00
1.952601036614126206e+00
1.994379775826321310e+00
1.196600188055360503e+00
1.028035867974080197e+00
5.994775407970824865e-01
5.736036132230786233e-01
6.676956565132451393e-01
6.935376771587208333e-01
8.075770611255305154e-01
8.335788214667647633e-01
5.151974115805996179e-01
4.946966910514662419e-01
4.512842305463688475e-01
3.680458958101435751e-01
1.949682618747203167e+00
2.037486175814378075e+00
1.823355470346398111e+00
2.499679064396195249e-01
3.048703278791856097e-01
2.353571709019879055e-01
2.168282564651729805e-01
2.571125056710900081e-01
1.665310898072243972e+00
1.585723788640805765e+00
2.057565538367134739e+00
1.998389080208657465e+00
1.916341532473187170e+00
2.094006288973653707e+00
2.127580436738888969e-01
2.797775410606395674e-01
2.360309659085434164e-01
3.587645402643488413e-01
1.480987489557308967e+00
1.327197923723573814e+00
4.970646886486691507e-01
7.605617544425211651e-01
4.808184831535722292e-01
1.721911077427773495e+00
1.591838027294373292e+00
2.795457131816045937e-01
1.238508489705445470e+00
1.311763857708105885e+00
1.232493160669094312e+00
8.854054889709577214e-01
1.039166651683059772e+00
5.781302229763518596e-01
6.391066218501763041e-01
6.478953778349959558e-01
8.253138716922644447e-01
5.753841730968314305e-01
5.490708813948601552e-01
1.452877616343736800e-01
2.435895262114607870e-02
1.904211098385685252e-01
5.182477103777121119e-01
6.422227782629100767e-01
5.564234440234056001e-01
8.122892374020956874e-01
2.255036576124984649e-01
2.565777283208071080e-01
8.312280800973522732e-01
1.171065878151791084e+00
2.135340525742367157e-01
1.614306898476712826e-01
1.509081393190579545e+00
1.581488038804798490e+00
1.195040912295503022e-01
1.617319285807300444e-02
1.733699665160276737e+00
1.851679069327575311e+00
1.938352997388725463e+00
2.082092297239204193e+00
2.165319998364183540e+00
2.132138100576320916e+00
1.923732210124356357e+00
1.828483489870398992e+00
1.529288749244386736e+00
1.440518564485584907e+00
1.222026857709344272e+00
1.135393080264931243e+00
9.112532521212756143e-01
9.791447291440802392e-01
7.908196596112579968e-01
8.188468756187090580e-01
7.383498849447505119e-01
8.063668472414364796e-01
7.989217014351376323e-01
9.342792471838570201e-01
1.056401810244172568e+00
1.344826939488269923e+00
1.720768921747688696e+00
1.700736758644421753e+00
1.888520337973589758e+00
1.927801641114420095e+00
2.067710923607597007e+00
2.113292720029015470e+00
2.173456853117740728e+00
2.136283840592027694e+00
1.961953053286834336e+00
1.864803282318886923e+00
1.595162445719259470e+00
1.501778193683369844e+00
1.285784025027002953e+00
1.228182753804086369e+00
1.079861922797772600e+00
1.002462849588833249e+00
9.049395431029417791e-01
8.609863341014434290e-01
7.654265598311459362e-01
6.927264408826038222e-01
7.965198941285344114e-01
7.981759029877890654e-01
8.502899716416655318e-01
9.116011212407226783e-01
1.103097068512686185e+00
1.182203825837670141e+00
1.545664965421981396e+00
9.932563489012241620e-01
8.037023513270999953e-01
1.091604829549329692e+00
1.412527143224371784e+00
2.021059317213386830e+00
1.596335316905500346e+00
1.720294674422891745e+00
1.767710646394851759e+00
2.136707757499986204e+00
2.146363759521841885e+00
2.064300060246420543e+00
1.981515292714294718e+00
1.907728766493597572e+00
2.070249561234563274e+00
1.001729053696410743e+00
9.202576510896121054e-01
7.275562731236516756e-01
2.155527211883643712e+00
1.882354762200052711e+00
1.710160789152725513e+00
2.176418117776003136e+00
2.029071465340964053e+00
1.893248158069183784e+00
8.018410934721624805e-01
5.045493209259146461e-01
5.798300299921250733e-01
3.700704777059583006e-01
4.600061380844192027e-01
1.395294666815671381e+00
1.988320241263005883e+00
1.477162162449569438e+00
7.626948743641278616e-01
1.818500005643210349e+00
1.419901021879611536e+00
1.974452051496400351e-01
2.736510567429412677e-01
3.728021713134911930e-01
4.492354360899907251e-01
1.124430462588892787e+00
8.641088979595886732e-01
7.535068812941468908e-01
2.192030269293199662e+00
2.055978258184722574e+00
1.949144136743021782e+00
1.219226350311340301e+00
1.275183618880913361e+00
9.927526691550500049e-01
8.511218735680345926e-01
6.483235043521188290e-01
7.213717692905923240e-01
6.464351440540819782e-01
1.350890749387232415e+00
1.165514653294881464e+00
2.031715934004174162e+00
1.596000616185031307e+00
1.379622427780883509e+00
1.386646517716471960e+00
1.423766049191993455e-01
3.110520663687770804e-01
6.984975735070674263e-01
3.981642847372433569e-01
5.094519278349927127e-01
6.221366163264847593e-01
3.889866304208894343e-01
7.900964587609292655e-01
6.144737508506666890e-01
1.059596559511094549e+00
9.083751740516907702e-01
8.031796827441133324e-01
6.964830140702288341e-01
5.275451177548320381e-01
6.134556218167014352e-01
1.120979010114783847e+00
1.008646094095001278e+00
1.117835106826648994e+00
8.632007713595620801e-01
2.085125191978379533e+00
2.035509980533365404e+00
2.047490773483787496e+00
1.720417464071738012e+00
1.603476337224611026e+00
1.174436685058700469e+00
2.114237465712166308e+00
1.744838854909479098e+00
1.555348634608241687e+00
1.421581906063598133e+00
1.266623035506382555e+00
1.166549472770041396e+00
1.138146445362695491e+00
7.665038687039800180e-01
2.743647855588366991e-01
3.707009093829513047e-01
6.643932259835778620e-01
4.725105634502958507e-01
5.641776857343671070e-01
4.357494589072102298e-01
2.824794216845000205e-01
8.077124732754752401e-01
9.019709460706049065e-01
7.236437447601552497e-01
7.413252795145767182e-01
6.339045471155246858e-01
5.042995490812697268e-01
9.685114693201528624e-01
8.763661069219531585e-01
6.085320960598191720e-01
6.052559238784097628e-01
9.514092202169047718e-01
4.507467178549501297e-01
5.535128381210695503e-01
2.160639413285723620e+00
2.027968433869896447e+00
1.928756266232208860e+00
1.831962807208713517e+00
1.830847332537047567e+00
1.003696246047971030e+00
8.794684366101430673e-01
5.959999140613839730e-01
1.608410146118204098e+00
1.463091127068587571e+00
1.348066096842221562e+00
1.097903921457481058e+00
1.000410610278654300e+00
9.166660464894015314e-01
6.790099185392514114e-01
7.786066514638059211e-01
5.828493743195870547e-01
4.959926959553767056e-01
3.741306665465098935e-01
4.276375358913327984e-01
6.197574835275779792e-01
5.119077422363664809e-01
4.635195702195615275e-01
4.190913457635844774e-01
7.902595631860572789e-01
7.136182501869505757e-01
6.648558517561115044e-01
5.746955946836769247e-01
8.546344574693121032e-01
7.809171067784393960e-01
2.700875781604737957e-01
3.844112503509528600e-01
1.865755835919514993e+00
3.024655923697028292e-01
7.738776538217471135e-01
6.043131765860917382e-01
4.960893747763209793e-01
9.705831833050270196e-01
1.357819193290044302e+00
1.071930105382505438e+00
1.190285011382749891e+00
1.912541254638125521e+00
1.045665385892188493e+00
9.217036051730297386e-01
8.089190297095096849e-01
7.592621678729598589e-01
6.602410631060606772e-01
5.602083656283134427e-01
4.876590912735968564e-01
4.295847481607624196e-01
4.570331718672759891e-01
5.456078125547885183e-01
4.991658131971788981e-01
5.664127740425111135e-01
7.073681582566195836e-01
6.601152993716290496e-01
6.118063285505459525e-01
7.514178376067857101e-01
7.031291467481921575e-01
3.115162711116915006e-01
4.350659653260496862e-01
4.471085266772188427e-01
3.931383232487747348e-01
7.650292044651311185e-01
6.779028782902670747e-01
6.001932905869807877e-01
5.209844248290551594e-01
7.945491199013373640e-01
8.770499747648575761e-01
9.203880730452563830e-01
1.114711255866560169e+00
1.002851092485739226e+00
1.415896333252566253e+00
8.504739924155595432e-01
7.538023525545103354e-01
6.606979458659730797e-01
5.682546475701513167e-01
4.944444888890878742e-01
4.583769040740849898e-01
4.710041713639336325e-01
5.213858741353775139e-01
4.843530514036149537e-01
6.148869193828441215e-01
6.646544258267760297e-01
6.352463575614372138e-01
6.892950270313761285e-01
6.611052652415476683e-01
4.426382677203176685e-01
4.953613518683290806e-01
5.058487380714924431e-01
4.758425095238072999e-01
4.836363226108573166e-01
6.881091796920282277e-01
5.862047156244599710e-01
5.432907578380251623e-01
7.746161708368012322e-01
8.396466869401510991e-01
9.355939637176449164e-01
1.111055111683987295e+00
7.002376626423562067e-01
6.281979905941988962e-01
5.397857906548805262e-01
4.716250705366530349e-01
4.908187504004150048e-01
4.747300370903139166e-01
6.341007025238096784e-01
6.402411742351609147e-01
6.508166427660168063e-01
6.353275481936668800e-01
4.979415716003519066e-01
5.124334792197405841e-01
5.168536946666150156e-01
5.109570157892682207e-01
5.202384239092148199e-01
6.256760389484011808e-01
5.537606148088440872e-01
6.977217070998008586e-01
7.666477490144494311e-01
5.257974139279810721e-01
6.080461873659649408e-01
7.491296714182611449e-01
5.933149869956454436e-01
5.562844524422659864e-01
5.288593293150095631e-01
4.671711726327366643e-01
4.624024636889652040e-01
4.628404104065724223e-01
6.310547184947684629e-01
6.222773636972709355e-01
6.226160668716760327e-01
6.154486496956206310e-01
5.131464742318346817e-01
5.165517986509264858e-01
5.378870142773574115e-01
5.361328542543075670e-01
5.314742702039676470e-01
5.802088935368744371e-01
6.315669885189459931e-01
4.020570459839062361e-01
4.067026810733596620e-01
4.122612811626086282e-01
3.869204124950892942e-01
4.107553491925133304e-01
4.022379361300713052e-01
4.726165540972939172e-01
4.332102423169005290e-01
4.969676083611236361e-01
5.137652364564568863e-01
5.407117571015572777e-01
5.277713272499352515e-01
4.395414556888763702e-01
4.327059943975691270e-01
4.484519377474793234e-01
3.957029193764590169e-01
4.088827477709286451e-01
2.647460201612433783e-01
3.092448415851401511e-01
3.027406728582388018e-01
2.678738730195037721e-01
3.024268233319750143e-01
2.765976351083186957e-01
3.114213895837387169e-01
2.845758913860108597e-01
3.147679808904889631e-01
2.920486512631783604e-01
3.038062815972211728e-01
3.268348979598343362e-01
6.140935878809251625e-01
6.008228045060983735e-01
5.957861815338089118e-01
5.112362095453324429e-01
5.115575724849613648e-01
5.707461472902621846e-01
5.373052262285425984e-01
5.337958313876092209e-01
5.548582631919654062e-01
3.964776372273767779e-01
4.103284062500765494e-01
3.823623287751298783e-01
4.290630780798478927e-01
4.500334157087836906e-01
5.335712326346719880e-01
5.384561901671646167e-01
5.128655626224347674e-01
5.018027468441502714e-01
4.156340686254593186e-01
4.005119049737677073e-01
4.203650580205978704e-01
2.059677983614951913e+00
1.825094175103377347e+00
3.764053964754921489e-01
3.942447032137152418e-01
3.777909559411979368e-01
3.537599597226773751e-01
3.608795501920466497e-01
3.341450430072704370e-01
3.251601311646072912e-01
3.432280780458705216e-01
2.175848026156555759e-01
2.577704691180240926e-01
2.482841695557957973e-01
3.023989251058714078e-01
2.651175352027463350e-01
2.830262349076893003e-01
5.878973992412751537e-01
5.724105884279775402e-01
5.659345366390355903e-01
5.011829797454712132e-01
4.925138693315616045e-01
5.223814887099221815e-01
4.964636133445411437e-01
3.859871990637284700e-01
3.632326606573567096e-01
3.817069263162075066e-01
5.285987856045230027e-01