<?xml version="1.0" encoding="UTF-8"?>
<VTKFile type="UnstructuredGrid" version="0.1" byte_order="LittleEndian">
<UnstructuredGrid>
<Piece NumberOfPoints="5313" NumberOfCells="8293">
<PointData>
<DataArray type="Float64" Name="Temperature_@_t" Format="ascii">
2.042415249251108367e-04
1.993913727591803365e-04
1.243228935330084953e-04
2.069919503060304927e-04
1.275998196878383526e-04
1.449983513977027075e-04
2.064026616273021873e-04
1.331819852490284781e-04
1.994062059658927868e-04
5.422573111637395138e-02
6.345012926779625140e-02
3.825782698269976356e-02
5.239987316347984037e-02
6.573054342247172666e-02
3.722770249121040709e-02
4.178157534196971085e-02
5.480471366755317736e-02
3.485361382801086677e-02
1.009016764165235752e-01
1.569700471127437880e-01
1.224427388870415329e-01
2.052240693136798411e-01
2.027698138382968696e-01
2.236260468498770804e-01
1.900042165960521001e-01
1.875695953674536010e-01
9.565728669984675803e-02
1.006221003935453273e-01
1.048624118347863676e-01
1.043558005740345546e-01
1.338314447649437966e-01
9.789139843061027413e-02
1.021427397216554261e-01
1.071316068891589035e-01
1.150843292262598155e-01
1.070689672663579506e-01
1.149307213072916778e-01
1.248577462718885728e-01
1.262555503689229142e-01
1.356922392261056542e-01
1.366572219656153608e-01
1.471592256640892327e-01
2.201787387046580113e-01
2.492039158330307813e-01
1.462591269192331511e-01
1.591777480052622706e-01
1.597485818586348305e-01
1.722750914968092517e-01
1.717724939577674470e-01
2.517644843369361563e-01
3.281502545332871112e-01
9.844736678344143121e-02
9.945950317393574265e-05
6.146883035325334792e-05
2.683461573343683682e-05
8.844378491112662056e-05
7.260161240176727675e-07
2.835858402444209054e-05
1.002571237707993677e-04
1.655241119269732775e-01
2.501752944806019396e-01
2.357791172984241290e-01
1.533039021320991291e-01
4.448881139028883214e-02
2.993542649087203508e-02
1.237051777249851825e-01
1.428950322775988657e-01
1.480867991395840300e-01
1.358571068499604129e-01
1.282344210038347254e-01
4.374646149021572256e-02
1.048853981743582409e-01
9.453241019474371842e-02
7.293230716694426574e-02
5.815959783324345378e-02
3.400010486193257714e-02
1.179993509925444245e-01
1.118495498543308625e-01
1.097957280764877003e-01
1.125546120376215847e-01
5.210095807299357923e-02
8.167361604062099711e-02
6.636629535989671536e-02
1.024340920455225068e-01
5.376101390209481190e-02
1.092380513908587786e-01
1.006550041721474692e-01
9.389840755694975338e-02
6.543388215496789839e-02
7.717857230602098717e-02
9.362798444604306103e-02
6.771289736204147425e-02
9.893583354584900569e-02
9.314183126365836729e-02
8.413832935165144189e-02
7.562447647853520749e-02
8.734666212110442363e-02
7.694296760309578265e-02
9.142639597799909201e-02
8.777905335835348155e-02
8.193884578885676784e-02
8.524101644527926069e-02
8.139823581645611039e-02
8.667822382349493759e-02
8.474603650908617281e-02
8.301475623174238427e-02
8.220666469859994052e-02
8.376340342955847229e-02
8.303148024930495641e-02
8.172756172808076647e-02
8.094903709369789813e-02
8.167325788436259615e-02
7.999410875139736921e-02
7.870227762818403361e-02
7.964192066810189818e-02
7.770280530527012841e-02
7.579090773733555830e-02
7.730817012344533279e-02
7.507098306956981604e-02
7.232699324111263595e-02
7.306851380688961228e-02
7.449012313635056115e-02
7.119461883511570000e-02
6.868439065959189294e-02
6.443079619178924966e-02
6.774501882780556428e-02
6.562323585893049815e-02
5.508946923405243917e-02
4.788518099241220044e-02
4.311817987665289564e-02
5.293326081688251583e-02
4.192783866998628373e-02
3.778204687552019075e-02
3.502359329870793903e-02
2.771205114336532452e-02
2.564053423432456624e-02
2.914524027375608312e-02
2.489004978435048476e-02
1.957763135484570996e-02
4.817810692870146128e-02
1.870558901147790706e-02
1.567005013576073733e-02
1.418779454095163775e-02
4.101685408069195848e-02
3.411163353187703778e-02
2.253337338686606239e-02
2.936150321873283106e-02
2.375172826659391334e-02
1.922252297513952699e-02
1.548818056303925828e-02
3.791606569122273757e-02
2.983996441875085351e-02
2.906576403932628269e-02
2.533995504802269080e-02
2.212254931097179175e-02
1.936928492550420502e-02
3.704715125282238841e-02
3.107147313377998585e-02
2.864139046256097831e-02
2.595752028967721059e-02
2.524627858792117749e-02
3.765963558137053885e-02
3.219968988843049940e-02
2.844843211559355475e-02
2.725195231953702127e-02
4.046027169438304316e-02
3.435630370989765925e-02
3.725470082564102253e-02
4.145874652326123067e-02
4.750309413582061435e-02
4.727727084636177551e-02
5.229539854156837336e-02
4.252322323314126212e-02
5.445857185053848415e-02
6.531606983421658907e-02
6.594732995527555208e-02
6.728778395580016503e-02
6.389688657333593425e-02
6.854340210890921825e-02
7.140774239070404872e-02
7.458388659217758676e-02
7.518958814970935767e-02
7.669700683759987647e-02
7.842523118623200007e-02
7.271459007553532361e-02
7.669139252269586982e-02
7.914570218674754631e-02
8.107219993355264942e-02
8.382288306448515414e-02
8.423101741891093897e-02
8.308910937561077292e-02
8.006040833275515634e-02
8.213105496931351335e-02
8.424341632287203618e-02
8.495359875058484944e-02
8.388087186029095921e-02
8.284543679922694304e-02
8.551202845538156960e-02
8.417599458520463873e-02
8.667638192950456733e-02
8.652073336669698078e-02
8.121833079579937609e-02
8.084046959089466466e-02
8.923724233187234345e-02
8.621718533251833405e-02
9.038447849515052201e-02
7.542406729854496394e-02
8.307619867300669592e-02
7.419120640227420960e-02
9.566255686936775415e-02
9.079367325277981626e-02
9.851075997754454860e-02
8.801732177875526419e-02
6.614965413253685866e-02
7.651510591505192305e-02
6.483395797712840358e-02
1.055905346049459265e-01
1.096132242146443669e-01
1.014901929401040431e-01
1.179751208382977257e-01
8.175403839938212569e-02
9.555620383255296335e-02
5.229722777979472353e-02
6.651730067866842844e-02
5.419985346603523740e-02
1.170460957302076055e-01
1.235464589638296112e-01
1.445446164389167509e-01
7.183827630771223716e-02
1.165426799981320594e-01
9.334468476413765314e-02
3.538817626981573955e-02
5.357967220968266192e-02
1.060625547581391243e-01
1.407281815425583671e-01
5.984380015383205381e-02
1.685710704577972896e-01
1.863783104692933734e-01
1.609580554037061684e-01
8.147209572145951151e-02
1.179877798475244127e-01
3.810914292943069770e-02
1.410329801159340701e-01
5.948359156306620710e-02
3.053274516073650746e-01
2.625867868946856754e-01
1.723673450830426335e-01
1.019442304728632592e-01
1.700686206714727700e-01
2.654240604941396908e-01
2.571979176275798751e-01
4.171811723119468740e-02
2.730059887398924440e-02
3.855024828480942828e-02
1.473063742448446622e-01
1.539344497799351730e-01
7.224920070715089293e-02
9.747856824372354290e-02
1.076903862374048448e-01
1.397984590994025833e-01
1.760649679410351276e-01
1.420204022459771176e-01
2.606872479284808031e-02
5.456065380631123368e-02
4.508838401406770752e-02
1.103299135117211394e-01
7.972785073803259626e-02
1.188547297527833835e-01
1.273598051917921858e-01
1.196853130261832793e-01
4.998853605542730172e-02
1.025262557945422620e-01
6.456700166300888277e-02
8.729252099374461282e-02
1.057602919282565196e-01
1.167874842808352825e-01
1.067637653841449624e-01
6.920838753880698135e-02
9.396532658628430068e-02
8.151122135977295624e-02
9.816052373976881518e-02
1.047261654371717809e-01
9.913771466409569688e-02
8.322864106326936795e-02
9.064316764778214408e-02
9.514522981572393068e-02
9.748589280060787621e-02
9.470519262178501985e-02
9.007568344851780984e-02
9.238204514720242677e-02
9.206480093199663484e-02
9.324363204468397170e-02
9.112429174461782189e-02
9.002180289846542505e-02
9.020485357990648545e-02
8.913878679237935421e-02
8.800870910117823687e-02
8.718629629895872923e-02
8.562647774666488909e-02
8.571663465508608248e-02
8.342845184118397039e-02
8.360251094993632892e-02
8.156992514833767693e-02
8.121980177333096296e-02
8.223753472508948947e-02
7.692876156148070743e-02
6.753523745880270213e-02
6.965209302567794414e-02
6.762240678599849841e-02
6.547497616614789129e-02
6.774346315272979091e-02
5.831033050663684408e-02
5.343899288083293203e-02
5.369279842520616880e-02
5.827262806542546358e-02
4.987606328446164000e-02
4.342252505221877446e-02
4.518829304663728175e-02
5.380560757426366275e-02
3.686098944373308178e-02
4.419346443907328642e-02
5.228329871199231815e-02
3.454188376694032614e-02
4.414382294369181836e-02
5.342097878961660218e-02
3.663868945675909095e-02
4.489446233700809807e-02
4.942244394804661684e-02
5.746604277086796164e-02
4.294292679260620915e-02
5.273607067848178759e-02
5.743748308020348720e-02
6.632412102839851942e-02
6.638250839833281791e-02
6.765122783406858631e-02
5.252346148300432449e-02
6.415388962545487406e-02
7.282256413756470204e-02
8.006260335796629157e-02
7.926780956423712388e-02
8.103992065612132534e-02
6.570616727116601608e-02
8.090476552389490317e-02
8.299421523723989058e-02
8.442362156152422026e-02
7.796509242167551368e-02
6.476515042246885900e-02
7.933016834765074798e-02
7.000520585604104451e-02
7.888254057864321767e-02
8.308033229953057375e-02
8.528332931613302748e-02
8.696675688807717353e-02
8.506120532048050409e-02
8.591426351160580399e-02
8.849961372208388355e-02
8.860168599671487677e-02
8.744916513914897938e-02
8.094990841823442029e-02
9.449971502040895033e-02
7.380503101873936433e-02
6.234153982014100509e-02
6.379018142613751552e-02
8.924294535914052695e-02
8.857442788206150441e-02
8.847492468471074289e-02
8.759836211888333279e-02
8.643272263621988583e-02
9.063030197298958812e-02
9.068500605476526033e-02
9.628612915202451605e-02
1.091193021381927225e-01
8.613404467697198530e-02
1.037280126154182108e-01
7.068088672611960721e-02
3.897812063630595042e-02
9.022701235245304818e-02
8.948196098983909885e-02
9.455336158444528627e-02
1.036492876433941640e-01
1.154304018558878209e-01
1.312030479245893944e-01
1.232882440801631868e-01
9.475931941075257936e-02
1.267453938289986592e-01
6.872068962901538292e-02
9.350521549673990185e-02
1.102389764257244442e-01
1.003734856647027635e-01
1.545719495997670556e-01
1.401334428641931307e-01
1.234106266278098968e-01
1.178036619614108715e-01
1.578703026708323798e-01
1.819220300378784627e-01
1.156473420560473475e-01
1.809108366247357824e-01
1.597068084851322178e-01
1.323133118783869910e-01
9.010311413552944682e-02
2.677428662283354299e-01
3.002076957762491727e-01
1.310099294377231050e-01
3.095087824827276457e-02
2.100001969746695049e-02
1.397728115855092490e-01
2.077697988953132457e-01
1.907453521843378574e-01
1.337810589703432029e-01
1.390076741104394886e-01
2.575897729464417946e-02
1.489615305522748630e-02
1.143046425698384938e-01
1.123754913241334086e-01
8.171923608317817334e-02
7.016655881337005574e-02
5.879854341618386687e-02
3.738704323913669136e-02
4.800679890847624198e-02
1.142663904610627806e-01
1.134375402670378952e-01
1.048599061905112484e-01
3.495295641458919661e-02
8.928592858006240141e-02
6.478930526873971640e-02
4.957182931879101917e-02
9.543608652279081395e-02
9.639752599709852654e-02
9.379831920530273814e-02
5.257889812007831426e-02
7.877192141096746314e-02
6.495262049511181524e-02
8.535969823707371951e-02
8.687706477110164471e-02
8.535842102847224222e-02
6.716994410042255448e-02
7.614615652204008434e-02
8.175951820258810232e-02
8.121172791966797810e-02
8.039056792388044048e-02
7.545439075285240160e-02
7.815586130373224083e-02
7.795988379908866395e-02
7.718649605932965951e-02
7.686989320093395861e-02
7.658367156369967621e-02
7.538097843455131286e-02
7.491375906051672695e-02
7.425956690212248690e-02
7.236269653446066041e-02
7.591974595278865034e-02
6.572753521022768608e-02
6.843902503343485266e-02
6.759523022837460315e-02
6.626488794440393848e-02
6.527567149994656370e-02
6.841738960898750832e-02
6.256960399823530139e-02
6.083685806323910206e-02
5.708006154716674385e-02
5.837706831817518482e-02
6.211245865325212834e-02
5.051229067277280410e-02
5.386556725760438535e-02
5.787134970258221017e-02
5.795895060823019751e-02
5.873530126270110063e-02
3.544529422217130438e-02
6.070464048432949039e-02
5.357703779488874607e-02
4.582226588309595838e-02
5.053928442740419219e-02
5.676929567575300650e-02
7.770684274021760762e-02
7.411094098112332162e-02
6.910263896620799651e-02
6.619929548941536068e-02
6.463783006010467846e-02
8.450193294705077296e-02
1.045419716480720657e-01
4.416263739066274979e-02
5.050499946043633670e-02
5.766385676192760379e-02
8.814859679947510684e-02
7.776067591596946826e-02
7.581370237021251013e-02
7.235731134461786951e-02
7.286805890320702250e-02
7.621727136402656200e-02
7.617050767310601378e-02
1.255152261242349632e-01
1.470513819040348280e-01
1.161820664785979396e-01
1.295445787324072673e-01
1.373057512539004321e-01
1.056554753809058611e-01
1.099626141247123517e-01
1.657741089877728946e-01
1.589671202897903479e-01
1.803405067588202126e-01
1.269861152251322844e-01
1.873516638308752036e-01
6.726812923538891265e-02
1.112931644890883115e-01
5.370247639912416326e-02
6.170602870970014198e-02
5.797947005027184741e-02
6.032066068219872623e-02
6.205535390358214720e-02
6.781228578115688910e-02
6.472423562397323915e-02
6.690376333846131951e-02
4.567360545749882261e-02
8.617248113495451500e-02
7.874136521075555950e-02
7.732049371567349672e-02
7.675950805797425447e-02
7.900578027708948792e-02
1.090011035262718614e-01
9.641567372363284150e-02
1.039650768039619144e-01
7.639491816932517110e-02
7.559630316153494178e-02
6.777311172909533665e-02
7.510616063096890727e-02
2.582945046617068363e-01
3.090919548447063070e-01
5.019713903346170042e-02
5.658932634515242283e-02
6.560236329261223687e-02
8.420872751267677314e-02
7.888485440876674692e-02
9.199716997229615001e-02
7.165484184907124077e-02
7.386535783523652532e-02
7.446629594793686968e-02
7.611560433689733285e-02
6.504566081288333523e-02
8.289942446872222703e-02
7.765034219290146977e-02
7.357902056462825580e-02
2.568885940588792188e-02
4.122920920564952102e-02
2.152243260382719417e-02
1.910109294984524766e-02
1.089743100710730168e-02
3.152987700081754524e-02
3.725569056859037026e-02
3.882643447932881964e-02
4.577870950500700226e-02
2.477730996433984492e-02
5.090654025325164721e-03
1.581910722263991584e-02
4.854674535671793523e-02
6.129717615290439237e-02
3.298410869011947355e-02
4.084987086356660357e-02
2.603499039534955956e-02
1.758482367417616918e-02
6.196528123172446306e-02
1.274394821190415195e-01
8.299274145855090046e-02
7.076238656941920280e-02
4.850949185324493484e-02
3.770625324617281338e-02
2.957785959428007802e-02
6.403017560087585769e-02
6.398105845577789497e-02
5.832881020475720601e-02
4.864969365950123914e-02
4.148004940766856358e-02
5.806739312581913476e-02
5.820416942289192291e-02
5.483445213638141191e-02
5.047906466546030202e-02
5.599976086783739482e-02
5.835902927343589869e-02
5.396736281411468328e-02
5.512131102992041953e-02
5.043906643190588374e-02
5.427695606574734627e-02
5.324379646012390721e-02
5.279711836466122882e-02
5.343999635302247586e-02
5.504425318023866559e-02
4.780000837109284889e-02
5.103314000225634556e-02
1.043922438247287254e-01
1.631273785025227629e-01
8.124397137148700598e-02
4.630063560738103406e-02
5.011833733130348356e-02
5.267258963379251036e-02
4.914605201115104793e-02
8.642997777533970027e-02
9.078137976461006509e-02
8.726364324744687040e-02
6.804325584988392406e-02
7.394567392156971286e-02
2.461757839028138814e-02
6.357886990832682661e-02
4.317297656021054642e-02
6.093931246951743430e-02
4.854842605560320823e-02
5.153472729898117555e-02
4.532007971380978134e-02
6.401117176161838507e-02
7.809325489919695384e-02
7.166649981398307001e-02
6.338183327107417553e-02
5.124293065952668924e-02
5.238965846350388672e-02
5.354362765208111469e-02
5.261655840126738815e-02
5.565185547810961447e-02
5.582354895434389619e-02
5.205696099309972680e-02
5.357542423517770713e-02
5.349321762981303768e-02
4.736440527068407069e-02
5.101175549169131157e-02
4.710972616704037219e-02
5.108074003843973698e-02
4.928007165316131144e-02
5.173112837599601332e-02
4.880477726702306396e-02
4.787493859479075020e-02
4.800330576941983646e-02
4.385160555073923383e-02
6.124979486423513114e-02
6.749668383618033507e-02
7.269012838561032808e-02
5.285688264871166164e-02
5.070892631212460533e-02
5.559758835896116969e-02
5.262343837516997302e-02
4.620523115492444072e-02
4.300632098694068262e-02
4.342213187249170658e-02
4.439303340080591465e-02
5.908936056787349872e-02
5.141066179408056852e-02
5.063504019981613508e-02
2.092802074574401372e-01
1.856483095393814675e-01
1.789943325372398975e-01
1.069126339333282549e-01
1.180532710710689992e-01
1.313329403702406528e-01
1.467477560516742274e-01
1.640596681419543845e-01
2.152250953489945218e+00
2.081959167829462221e+00
2.138498145414895912e+00
2.086393897139859455e+00
2.005151464850671861e+00
1.969843835367772744e+00
1.876167955232445950e+00
1.855388164828403408e+00
1.580262377916192174e+00
1.343771389674440098e+00
1.023376825979452898e+00
1.716308064195910310e+00
1.790192908939854055e+00
1.631696418567949003e+00
1.534622834087981946e+00
1.847197454535159711e+00
7.640686334214948916e-01
7.785897530709948722e-01
1.030553176646388014e+00
1.341949795798566214e+00
9.594267888528873467e-01
8.989557890598440792e-01
8.506270036995010608e-01
1.696509569444015320e+00
1.824904786631343923e+00
2.097103577391010276e+00
2.144941056271766566e+00
1.993318386053204438e+00
1.899470603443217165e+00
1.432199264442437059e+00
1.349252934125713566e+00
1.157922962925201693e+00
1.106826169524714576e+00
9.840967282541104311e-01
9.440092542018797550e-01
8.776315206301356087e-01
2.169583362173859165e+00
2.121914441462678713e+00
1.883767456116162808e+00
1.696172604568139120e+00
6.808123303256430336e-01
6.027358919974502571e-01
6.433149953577701474e-01
6.756069863374414286e-01
6.839055350661557009e-01
7.267156355705470805e-01
1.830253284758638355e+00
1.501099102079805681e+00
1.398141405439776719e+00
1.277766981417852277e+00
1.028049975776174296e+00
1.441876809693605876e+00
9.616083129163616183e-01
2.129916628836182380e+00
2.093603500311738586e+00
2.058058474952872086e+00
1.993777091689507674e+00
1.953731779600341500e+00
1.919313800316996943e+00
1.862607246263988436e+00
1.786424114412818343e+00
1.812191914834294204e+00
1.831514412988274554e+00
1.705022328830443357e+00
1.418074566893985144e+00
1.227599764853778641e+00
1.708730070586987004e+00
1.611453671561149159e+00
1.097639490851073818e+00
1.044602917187852587e+00
8.679956361155037881e-01
8.914236516395891430e-01
9.201760200073817453e-01
8.597037629935835312e-01
9.396168757795670956e-01
1.897331116398253137e+00
1.640174781918472657e+00
1.859100566699198653e+00
1.897160993646104465e+00
9.579066624030191379e-01
9.198033643339722509e-01
1.052829418243329540e+00
1.012692959744316612e+00
1.225420553681456859e+00
1.301173980843802092e+00
1.909404784438166969e+00
1.960177123180323777e+00
8.250119798120385539e-01
8.477644414551098739e-01
8.481589407386275203e-01
8.219793588077961566e-01
8.582074701136033212e-01
8.951022594105207952e-01
9.326075226220980063e-01
1.600806441465264074e+00
1.417527694157779017e+00
2.001786886196316839e+00
2.041671736799680836e+00
1.245898860850015222e+00
1.063421002732013232e+00
6.099530847061600536e-01
5.798318211203234984e-01
6.839839118687687236e-01
7.166214664676003876e-01
8.370011727856568884e-01
8.792815460067050504e-01
5.283474966603822764e-01
4.978202984945930276e-01
4.615236267483702193e-01
3.728783278074300211e-01
1.984477123147883049e+00
2.063711958267508528e+00
1.877003615399789993e+00
2.578090979070755129e-01
3.340922006344249628e-01
2.387736669622631258e-01
2.124905417408151642e-01
2.562981903731879618e-01
1.743165777708046926e+00
1.678149829749401745e+00
2.069175452703502671e+00
2.003905011725535257e+00
1.954393034184642497e+00
2.115784980388987879e+00
2.057288582978474833e-01
2.795650931071900214e-01
2.372098742161945217e-01
3.360829789561711189e-01
1.588029007764678591e+00
1.456414808106475389e+00
5.576023296511217753e-01
8.349780533336703670e-01
5.096953502511949452e-01
1.711741352575646635e+00
1.569875173076514807e+00
2.607128849412327920e-01
1.372012157818176536e+00
1.285731174332243043e+00
1.197434947858595944e+00
8.146116583811520151e-01
1.014208747268676269e+00
5.316073878164044864e-01
5.918366218143791269e-01
5.921887812531896333e-01
7.616434373340283948e-01
5.431042113261986826e-01
5.256028665430501068e-01
1.433465734560143978e-01
2.463440530547959112e-02
1.877843806079529387e-01
4.918867074962449681e-01
6.052257011479486026e-01
5.248078682117135463e-01
7.854639448072902042e-01
2.220674864988243236e-01
2.524202074168017118e-01
7.924615889125701251e-01
1.128067637337093698e+00
2.098748398155748651e-01
1.583709767419024805e-01
1.478068144070064260e+00
1.555025839116510822e+00
1.173615848871604889e-01
1.652066419714736181e-02
1.719235048671747590e+00
1.846829077926172458e+00
1.940773867298404065e+00
2.094258767316201642e+00
2.186794679012109999e+00
2.154773780716154441e+00
1.952963988608909629e+00
1.861275651558476962e+00
1.562988681066437957e+00
1.474611358224866997e+00
1.250436376544876715e+00
1.181325434669450392e+00
9.623779915324068845e-01
1.018110458502750726e+00
8.255716242876045552e-01
8.621484386330543481e-01
7.692478475376428593e-01
8.320701176689963008e-01
8.073157074167165437e-01
9.592205517235501411e-01
1.057032691067537833e+00
1.356177534269666252e+00
1.736387724887225703e+00
1.716230864798564903e+00
1.907212667092720304e+00
1.946652550390842507e+00
2.088412323135291793e+00
2.134402644177142871e+00
2.194054975517325978e+00
2.156594970348581164e+00
1.978471501378281427e+00
1.878322227802158073e+00
1.606358504500955853e+00
1.509788553333681227e+00
1.293276513790075466e+00
1.231474307488963138e+00
1.077978611982434165e+00
1.009047478487940852e+00
9.238497620497637675e-01
8.646186552723816865e-01
7.995985700619054892e-01
7.351256388665372565e-01
8.510051947807580897e-01
7.991362160240160772e-01
8.537309091898839242e-01
9.508526442784448474e-01
1.145074104713909025e+00
1.223177744183407967e+00
1.594548258983398137e+00
9.775668040609918341e-01
7.722691419069385166e-01
1.049553761516630157e+00
1.365868901250836265e+00
2.059463036893825816e+00
1.642086261312370565e+00
1.695298069386003137e+00
1.747325239859405466e+00
2.167734390526661059e+00
2.169748836357494604e+00
2.079933385452453987e+00
1.987503375975311792e+00
1.906327207821114200e+00
2.072363547222340507e+00
1.074106377933824907e+00
9.827100806987842940e-01
7.752626803899201891e-01
2.158916570217302322e+00
1.875407843723454482e+00
1.697513056990813674e+00
2.192782026619026325e+00
2.056160258150618869e+00
1.942023566964804271e+00
9.073723736814012231e-01
5.477359137484659746e-01
6.170303645143669913e-01
3.830747059077280747e-01
4.900401265448960375e-01
1.351263732946685669e+00
1.998666044706764344e+00
1.461929937172666616e+00
7.528864807849622309e-01
1.809781796973781498e+00
1.407524160842170913e+00
2.255292120564185987e-01
2.550940283694148047e-01
3.780855965023040000e-01
4.677178563449621573e-01
1.079000127881924342e+00
8.078276043967513864e-01
7.191686354876717369e-01
2.221238214156279422e+00
2.075050306233614528e+00
1.953074390379490266e+00
1.198719507009350149e+00
1.260111602024304389e+00
9.906835174093054919e-01
8.500146169896826143e-01
6.265769654889677964e-01
7.271607046563022259e-01
6.426275372484041570e-01
1.337046984730287935e+00
1.149246905737860924e+00
2.070352298788691758e+00
1.635066412120818047e+00
1.417695553607073000e+00
1.456795292350711257e+00
9.943325629942667554e-02
2.528947777474296887e-01
7.219788416673582621e-01
3.635161419117677317e-01
5.180029072736127560e-01
6.310932494134390280e-01
3.432446110175020326e-01
7.097912596046924705e-01
5.613806295748955399e-01
1.040611389022357836e+00
9.076905567828398302e-01
8.077493205542207733e-01
6.867922300351402276e-01
5.146958399740773071e-01
6.182115249646763511e-01
1.101729292445879471e+00
9.956954183044550710e-01
1.180361465351590589e+00
9.068727593335481618e-01
2.083405590472090729e+00
2.024760399578215964e+00
2.058538436667532334e+00
1.690125996569963762e+00
1.563790669060293181e+00
1.124309312244629711e+00
2.103540300440713384e+00
1.722921490046575688e+00
1.594752258235047071e+00
1.458678627998837518e+00
1.301418068404566197e+00
1.193280415832312924e+00
1.160670609739861581e+00
7.971949797268683691e-01
2.240751633432251921e-01
3.156975017878706491e-01
6.696210421118220513e-01
4.352209978961179004e-01
5.414177470135950188e-01
3.935809181490343422e-01
2.436165912731839134e-01
8.005190795887311417e-01
8.893870553479692465e-01
7.077809517913815629e-01
7.271425747994245681e-01
6.155257803599869515e-01
5.069033584984495855e-01
9.557871630298635512e-01
8.689104607601860764e-01
6.364824420557599893e-01
6.358434257574142601e-01
1.024193826602667778e+00
4.639380857456674723e-01
5.793858881561823049e-01
2.164921463018757208e+00
2.040796346886581958e+00
1.956238784965295352e+00
1.811942279089693075e+00
1.826375938703533208e+00
9.409926448058022475e-01
8.171908992772429770e-01
5.537129544668777381e-01
1.580343437336444001e+00
1.434432506943319696e+00
1.381839856378106690e+00
1.121320684230231901e+00
1.012892715397307519e+00
9.360557302810110780e-01
7.150939500122017733e-01
8.107668775564010888e-01
5.857884565103913532e-01
4.840537868268409150e-01
3.114976658832476764e-01
3.735865825329900969e-01
5.948619975750177868e-01
4.855999501489698944e-01
4.238627690270903026e-01
4.532569781644896767e-01
7.751216214279583738e-01
7.110066158896394262e-01
6.547189244684851195e-01
5.569339068359178135e-01
8.418192252611227389e-01
7.805399794962097904e-01
2.849989344879237940e-01
3.593802072873758524e-01
1.878148275777219878e+00
2.201469009621970230e-01
7.295182910353383843e-01
5.718839858194985082e-01
4.554463580950242063e-01
9.592653471607968108e-01
1.328500658247087518e+00
1.040854880629055401e+00
1.163193158990287523e+00
1.941595469107304739e+00
1.062002835029992376e+00
9.299898503863691657e-01
8.086173474747114787e-01
7.676034013959855962e-01
6.518343178000303162e-01
5.368349108876069309e-01
4.534587627235332485e-01
3.816006357922507863e-01
4.267703646633347336e-01
5.577996805735104813e-01
4.740695900440215493e-01
5.531134181378289938e-01
7.267957580962465247e-01
6.796824310218398946e-01
6.172513982084171236e-01
7.658544487600402739e-01
7.228935954636453998e-01
2.629687301210140715e-01
3.928779809558682889e-01
4.192405518867889369e-01
3.871393286210462747e-01
7.388137836535705327e-01
6.403634028671968403e-01
5.627531480159830846e-01
4.925990179539004865e-01
7.825663773804910628e-01
8.660125773859287390e-01
9.011548670350947310e-01
1.088287735591406902e+00
9.767572494679213069e-01
1.468537827806521978e+00
8.524961414039728957e-01
7.458792382746088911e-01
6.392212513220120185e-01
5.421075544305609117e-01
4.706668239098544815e-01
4.309320004531547177e-01
4.501959277009767169e-01
5.130719649770432156e-01
4.709772628763851943e-01
6.228285382298331951e-01
6.842327268932886231e-01
6.529383346825267109e-01
7.078532820477417831e-01
6.796416331725199100e-01
3.949081998182042974e-01
4.617599297482342657e-01
5.083972644143889275e-01
4.746855869881441703e-01
4.834227644034535532e-01
6.538438743127562569e-01
5.572837667781397331e-01
5.548625167624268162e-01
7.508577814690445829e-01
8.195446711388142402e-01
9.031314548253129848e-01
1.152975398449574529e+00
6.963495517872428930e-01
6.206042823615589565e-01
5.351535470081091317e-01
4.535197662788680861e-01
4.834303208539484364e-01
4.631102609185253627e-01
6.490679961977864343e-01
6.578967263888919614e-01
6.688704123280027058e-01
6.529995810377646759e-01
4.642378887548276323e-01
4.976642113519610389e-01
5.364271122377566314e-01
5.263479899853829025e-01
5.312511007471492075e-01
6.167049828911452813e-01
5.721184387653583947e-01
6.881959458047265388e-01
7.546124910483967829e-01
5.493254507394775832e-01
6.437069621693162214e-01
7.690126542818603861e-01
5.961470852413005561e-01
5.549154851316757675e-01
5.223138067286527964e-01
4.560931051892976873e-01
4.549208574978446107e-01
4.538102690490536384e-01
6.481495800475607361e-01
6.395166979854206568e-01
6.399424532746740280e-01
6.325946962124160411e-01
4.966014561509034531e-01
5.070327604592153037e-01
5.558084129605904700e-01
5.530215776084246304e-01
5.484393990290044041e-01
5.985280230067486773e-01
6.469119681278174827e-01
4.111687974311347138e-01
4.159246928643367536e-01
4.188721516759412178e-01
3.907560266621569189e-01
4.187541833787788992e-01
4.104769198416243770e-01
4.881649726178455828e-01
4.447356461660096349e-01
5.173754134582957409e-01
5.332224985929475691e-01
5.375565373089010723e-01
5.224078613003074745e-01
4.319941700296749398e-01
4.257128678276309586e-01
4.401534794605166390e-01
4.067126179249564988e-01
4.214188809163932348e-01
2.755931383200429519e-01
3.283045327359057630e-01
3.181047571102325611e-01
2.773579612427929941e-01
3.184803614198382093e-01
2.870605700875346611e-01
3.279286388932760032e-01
2.962980798778844793e-01
3.327840174999057155e-01
3.050972680168499984e-01
3.188293541833782663e-01
3.459655835018318193e-01
6.311158154182026081e-01
6.176169435668490415e-01
6.124833477834261686e-01
5.020267327179963601e-01
5.049045389637391024e-01
5.869416566460504692e-01
5.528712740610637333e-01
5.501038682612733322e-01
5.718293123374245113e-01
4.069409362282521703e-01
4.211003426671139915e-01
3.939806616417224072e-01
4.428237925363103789e-01
4.665784954675534224e-01
5.469179188873617425e-01
5.514143943248797086e-01
5.079796167362324866e-01
4.968035981642437982e-01
4.088550598427370675e-01
3.941377798701898305e-01
4.134078007334783256e-01
2.083742658422135463e+00
1.877418651525620374e+00
3.898217585557175457e-01
4.112237214511983430e-01
3.977046014676938190e-01
3.689984524870342786e-01
3.820917568626419070e-01
3.500981397613199264e-01
3.419196868933649380e-01
3.641547665270796763e-01
2.155687607291558172e-01
2.642014863384703482e-01
2.529318678556851108e-01
3.167471275584969881e-01
2.730606526487825425e-01
2.941781354670628401e-01
6.043973288290986901e-01
5.885995641624275354e-01
5.819886064392063574e-01
4.954957151695303375e-01
4.886399247081465447e-01
5.358575085291735762e-01
5.100938508060607335e-01
3.978492863361013931e-01
3.753903064631858855e-01
3.942842283142596882e-01
5.400428192638427882e-01