<?xml version="1.0" encoding="UTF-8"?>
<VTKFile type="UnstructuredGrid" version="0.1" byte_order="LittleEndian">
<UnstructuredGrid>
<Piece NumberOfPoints="5313" NumberOfCells="8293">
<PointData>
<DataArray type="Float64" Name="Temperature_@_t" Format="ascii">
2.216008852259923276e-04
2.162772156681549280e-04
1.348581911351373012e-04
2.245208241892996791e-04
1.384054745203596110e-04
1.572736190186220702e-04
2.238088771862410795e-04
1.444512486870347541e-04
2.162958960344284057e-04
5.581051584845128644e-02
6.586592860286660800e-02
3.907411068396768328e-02
5.201961773938549444e-02
6.538805776719459895e-02
3.762496886205678182e-02
4.345242564065145141e-02
5.782345008446282408e-02
3.574026576734559008e-02
1.074787340706389177e-01
1.671392900807305570e-01
1.302147189198675781e-01
1.968341590270299979e-01
1.942167167155563479e-01
2.207220329178359586e-01
1.788817925017352206e-01
1.747412461376944837e-01
8.686352036659088227e-02
9.174463666831715603e-02
9.396528117713998096e-02
9.322661953131597401e-02
1.128158181451436176e-01
8.942617015937710800e-02
9.360271411146295351e-02
9.720396193549531161e-02
1.038651129754760982e-01
9.766306269486288438e-02
1.032719516795940484e-01
1.114983826880203283e-01
1.124307800953940617e-01
1.204184552992024620e-01
1.213979434411295438e-01
1.306535829965274897e-01
2.181152567554543176e-01
2.535626456349491797e-01
1.303284124013611711e-01
1.424605818980365091e-01
1.439061133458923725e-01
1.566543436725941207e-01
1.571386322713668737e-01
2.565792693426527382e-01
3.517152555199520858e-01
8.989665942189919989e-02
1.078839884895499218e-04
6.666924723823907241e-05
2.911673167651029030e-05
9.593215933467663995e-05
7.319899499535543340e-07
3.075907990444949321e-05
1.087440178619367436e-04
1.692198171017085251e-01
2.528942634298072534e-01
2.418036476841624038e-01
1.561012152190565105e-01
4.559135493584826060e-02
3.063164749349183563e-02
1.251906520779022258e-01
1.467519877210705370e-01
1.533014114182836007e-01
1.388161993099705782e-01
1.304838041801327231e-01
4.480621704071970079e-02
1.083138602765442299e-01
9.886873647029986723e-02
7.539964302921764450e-02
5.972364132878982962e-02
3.478041466288035038e-02
1.198338614368982119e-01
1.139761868979366627e-01
1.126016866238774838e-01
1.150000489755135386e-01
5.336474172501026042e-02
8.390295315404644461e-02
6.804771852409781385e-02
1.045966683707490602e-01
5.502080226793038681e-02
1.112043517386820390e-01
1.026940227211647766e-01
9.609289895962155881e-02
6.700082988801499273e-02
7.903983810335396543e-02
9.565567484936775278e-02
6.929000084420269823e-02
1.009121915745043174e-01
9.509590852812779826e-02
8.604432228851134623e-02
7.736735694667309926e-02
8.924259290207310624e-02
7.867411674645662101e-02
9.334639680409369256e-02
8.964548860900620197e-02
8.374278157178277615e-02
8.707187294414797663e-02
8.316818437999350111e-02
8.851668921776635612e-02
8.654135621938684186e-02
8.477955508832449305e-02
8.393752553697224339e-02
8.552133544365937701e-02
8.476879510454506106e-02
8.341610266772372939e-02
8.260233536179267810e-02
8.335138991388238439e-02
8.160109201726516159e-02
8.025035137234706739e-02
8.123108083432002691e-02
7.920733733787065078e-02
7.721363913018076952e-02
7.879453349263862427e-02
7.646375477068460824e-02
7.360892301513366487e-02
7.437987754382187344e-02
7.585783174426720399e-02
7.243102121306288499e-02
6.982686022328941922e-02
6.543935915624846111e-02
6.885274281068150259e-02
6.663621032531003019e-02
5.590371530234107544e-02
4.855966290657338924e-02
4.371761830945847249e-02
5.370458538263024606e-02
4.249260655019959643e-02
3.828273348858720476e-02
3.547896382180177471e-02
2.806964631172650243e-02
2.596711782762200008e-02
2.951628291048502550e-02
2.520340352566621811e-02
1.982521574305981873e-02
4.884047697509132091e-02
1.893027045632912631e-02
1.586413064234072634e-02
1.435634359397094766e-02
4.154816708205164022e-02
3.454527373258961531e-02
2.281093252735991520e-02
2.972776741007139567e-02
2.403519846127019632e-02
1.944710127415992529e-02
1.566352208163341447e-02
3.838559102649047317e-02
3.020268630117737760e-02
2.940947430349897390e-02
2.563416761966995708e-02
2.237351849742798965e-02
1.958321044445144113e-02
3.748567798641235654e-02
3.143113088749282386e-02
2.896487885866480885e-02
2.624598957048270356e-02
2.552246051920929043e-02
3.808456244149430181e-02
3.255409356976451257e-02
2.875930467650619424e-02
2.754568067217972108e-02
4.089357567088619527e-02
3.472280279062274488e-02
3.764314295537263960e-02
4.188162524087098854e-02
4.797460192578365673e-02
4.773198615096732600e-02
5.277436905617839680e-02
4.293998261726597598e-02
5.494835488054946454e-02
6.586565153724618926e-02
6.647134588784313347e-02
6.780359036462831057e-02
6.442411813983002500e-02
6.905615618385445298e-02
7.190210292881711596e-02
7.505862467820034745e-02
7.565971100695340068e-02
7.715771529816617402e-02
7.887359307694109811e-02
7.320195804093659886e-02
7.715267988065706295e-02
7.958976211993275263e-02
8.150222920612952560e-02
8.423281681532716891e-02
8.463274067078173368e-02
8.350408472679329841e-02
8.049845023222364226e-02
8.255451316884489243e-02
8.465448620849803929e-02
8.535283908076686521e-02
8.426595536024150679e-02
8.326462897404990349e-02
8.591872313900728031e-02
8.455971991548671962e-02
8.707993180262849076e-02
8.691609736303743117e-02
8.158593784796361326e-02
8.120557690216183289e-02
8.964431560331884152e-02
8.660151911026729710e-02
9.078939387686021933e-02
7.578364859232986084e-02
8.343733843777662029e-02
7.452852722358509208e-02
9.608517069730324045e-02
9.118338267435444067e-02
9.894110596397881485e-02
8.837612648438025742e-02
6.646143304071232272e-02
7.684384766673880984e-02
6.513558245249748135e-02
1.060957240966253906e-01
1.100900151734323512e-01
1.018901541853075715e-01
1.184158793433318230e-01
8.207093065892168138e-02
9.589830348435315899e-02
5.255974380368626242e-02
6.681083909496439432e-02
5.446787716127623330e-02
1.176318725486741879e-01
1.240900744764997649e-01
1.449850087429830903e-01
7.211788190974360857e-02
1.168854758246239828e-01
9.363093147713799635e-02
3.557953867297734135e-02
5.384478670787593013e-02
1.066278425268964714e-01
1.413099374422901178e-01
6.010876627037223252e-02
1.690396282936095784e-01
1.866775121906663615e-01
1.611796224057333304e-01
8.168805300472591069e-02
1.181833532018735228e-01
3.835729579440433357e-02
1.418525550556522519e-01
5.974372237342218811e-02
3.060105067374491172e-01
2.624439291819606335e-01
1.722490000635992224e-01
1.019761639800876724e-01
1.637439322336968484e-01
2.534537841113838064e-01
2.491176686939285123e-01
4.162107086987645171e-02
2.734477502872509694e-02
3.835581493116207996e-02
1.420962663227892386e-01
1.471846811862783933e-01
7.077674510878075032e-02
9.376420932088329330e-02
1.042665967380132508e-01
1.352497785048234202e-01
1.694494188993281025e-01
1.373101106205246447e-01
2.594181811300014240e-02
5.393631751495958637e-02
4.467125370381357097e-02
1.071546646798473418e-01
7.799759587817821360e-02
1.153310705121776553e-01
1.231754144373839455e-01
1.161045934210819114e-01
4.943892114403298371e-02
9.979291459447212076e-02
6.350766064974076863e-02
8.526805013738078531e-02
1.028829772315632829e-01
1.133688073648360800e-01
1.038335325499531170e-01
6.797021796731046728e-02
9.164942285773088060e-02
7.976331282331995676e-02
9.564788327709503046e-02
1.018821969030090924e-01
9.657214862030912006e-02
8.142257824075846417e-02
8.848404608792001524e-02
9.276997561582595031e-02
9.499769410184230600e-02
9.234345229801871335e-02
8.794035704998401370e-02
9.013139208153578275e-02
8.981582272654674293e-02
9.094206366423016052e-02
8.892210012864666668e-02
8.785400105104002044e-02
8.802731015474565823e-02
8.700520668250112666e-02
8.591619309945359995e-02
8.512516269371091238e-02
8.362223291638003209e-02
8.370929427989859395e-02
8.150257674113500772e-02
8.167110211334491221e-02
7.971295546247292307e-02
7.936997284270512487e-02
8.038770606202681746e-02
7.520399363659543979e-02
6.604427637053200684e-02
6.812425333847324516e-02
6.615158140992991043e-02
6.406455761172417940e-02
6.629301213973248785e-02
5.707635161799148177e-02
5.231229585493225170e-02
5.257151931793629940e-02
5.705700842464983547e-02
4.884484581122991442e-02
4.252508824168865775e-02
4.426011365671957132e-02
5.270121042205425793e-02
3.610775355437290113e-02
4.329336237457075826e-02
5.122324705966276731e-02
3.384210080887659067e-02
4.325235162574809361e-02
5.234927012804921342e-02
3.590197228422378761e-02
4.399418834022768982e-02
4.843592613254021906e-02
5.632570277336709785e-02
4.208633178626213639e-02
5.168954008311072573e-02
5.630583981395007043e-02
6.502418496162158668e-02
6.508980477491339844e-02
6.633589867026533360e-02
5.148730591035760584e-02
6.289937048452449997e-02
7.141162714606666406e-02
7.851419682487352503e-02
7.773660201631493738e-02
7.947777027245268855e-02
6.443069192703161641e-02
7.934455173976007192e-02
8.139530325114929799e-02
8.279795327089518875e-02
7.594163064768984228e-02
6.283760820189661367e-02
7.734362840495061231e-02
6.785934609875986234e-02
7.735946196204228353e-02
8.148029439069744140e-02
8.364121056201552495e-02
8.528865942481513029e-02
8.314664259238557786e-02
8.404037981260432943e-02
8.667676925301671942e-02
8.679025212678040391e-02
8.551042166597118410e-02
7.884135510384499002e-02
9.257018313889227301e-02
7.153946168771838088e-02
6.010229970781007930e-02
6.149928686930996452e-02
8.748111641762437718e-02
8.684536825680112815e-02
8.675968352869874167e-02
8.591317512130000611e-02
8.477101545716919651e-02
8.881168031048651546e-02
8.891673674551021922e-02
9.452555495984597822e-02
1.075415532580676764e-01
8.389997570792188941e-02
1.017897562546718343e-01
6.814767862139543830e-02
3.714535133971020447e-02
8.850256832908064142e-02
8.777872026481976786e-02
9.284801987204276130e-02
1.021172863918437396e-01
1.143256915715347294e-01
1.302478151739996648e-01
1.217724678153661311e-01
9.241231280581969909e-02
1.249805224488233502e-01
6.536433310091067928e-02
9.180808640382694119e-02
1.089843014255889309e-01
9.879351200894956331e-02
1.541210942035969311e-01
1.397558518229641000e-01
1.228473611894358025e-01
1.171579839581580185e-01
1.570975108609043158e-01
1.819571858802980502e-01
1.131334475571664777e-01
1.805283161346232790e-01
1.598251777780299587e-01
1.323187851084244304e-01
9.008541891337927543e-02
2.679435241457056027e-01
3.028491261130160650e-01
1.317727250146075169e-01
3.193288017702791692e-02
2.154442423255248373e-02
1.441947010360347114e-01
2.105513363082648637e-01
1.971799957944937454e-01
1.376231398376928372e-01
1.426356576487136096e-01
2.654553513675134147e-02
1.532373715888499417e-02
1.190317190473888370e-01
1.187025522420601109e-01
8.598350653411536426e-02
7.602488647480168393e-02
6.191157466535655851e-02
3.868857224344066092e-02
4.993129477997436394e-02
1.180779838216998723e-01
1.167885613109749809e-01
1.078665910093195568e-01
3.608911251223281824e-02
9.278699187626361644e-02
6.744169276953851377e-02
5.137925249725788790e-02
9.864664481813759100e-02
9.938635297941940394e-02
9.661212089874746112e-02
5.440977508137766205e-02
8.161463665034371373e-02
6.729413583484811223e-02
8.819396492809714050e-02
8.963674667858986811e-02
8.804975147416027603e-02
6.950783244182641429e-02
7.872677882619157075e-02
8.442701607228618454e-02
8.381954434946690957e-02
8.296298165489439380e-02
7.797369719561074441e-02
8.069697739541449588e-02
8.045037183343785314e-02
7.963932668336753951e-02
7.934962796981256949e-02
7.902824845967920675e-02
7.775783743458569708e-02
7.725642640993549137e-02
7.659398551300798663e-02
7.460254999827234390e-02
7.825078355664535912e-02
6.773867143629946908e-02
7.050957134388011194e-02
6.962154718758141458e-02
6.823867488724803809e-02
6.720057967107453956e-02
7.041494065738562735e-02
6.438480120258846529e-02
6.258154390603042072e-02
5.873200597095597220e-02
6.003439755100291320e-02
6.386320845001254576e-02
5.192470437381419002e-02
5.536174066529891274e-02
5.945933094566274724e-02
6.157963025483127045e-02
6.228997406452022739e-02
3.921206164706694114e-02
6.430407014122638265e-02
5.812845531566736973e-02
4.707382451390310085e-02
5.191003931402016214e-02
5.829288786615241524e-02
8.065382213233471265e-02
7.696756890970495035e-02
7.211013661564884270e-02
6.918708540623774716e-02
6.742869729640658949e-02
8.743291722669030430e-02
1.060460228786118814e-01
4.534679490053878520e-02
5.184539781070887643e-02
5.917933000789008663e-02
9.008237355133877355e-02
8.024639821545072327e-02
7.821724627112816575e-02
7.484140431185731801e-02
7.527536911177014345e-02
7.833755399539939213e-02
7.825219702358385265e-02
1.196647949310264275e-01
1.420527842119879702e-01
1.124931715045712349e-01
1.271199465811432561e-01
1.360281414124950572e-01
1.059033087585977140e-01
1.084376993853236049e-01
1.615214862266783902e-01
1.520068944538857936e-01
1.734009490370410911e-01
1.281862220979436140e-01
1.825343079009124070e-01
6.393977619139533386e-02
1.027853047483982263e-01
5.509782489791465593e-02
6.329082396755364437e-02
5.945986155078041707e-02
6.184834147027219037e-02
6.361272512446512761e-02
6.950581462126578791e-02
6.632808702279667512e-02
6.854110741536185991e-02
4.687707721428563401e-02
8.782892563532011809e-02
8.077275529443150859e-02
7.921716368325018576e-02
7.864221881409738657e-02
8.086852874785271927e-02
1.057602913775758935e-01
9.684745712212929070e-02
1.030929116036680138e-01
7.820285328678754089e-02
7.740280535419101493e-02
6.941945666520699110e-02
7.691350168152931432e-02
2.526619294384953029e-01
2.933093996699502881e-01
5.149314299061239636e-02
5.801052511909621928e-02
6.721383652406542897e-02
8.569774633153504073e-02
8.062316179569847807e-02
9.274890321714565622e-02
7.336735558311403838e-02
7.562821449855507139e-02
7.622427493926327291e-02
7.787272716661555738e-02
6.661094434748056348e-02
8.440003110055616098e-02
7.937101511348935989e-02
7.530576896488783145e-02
2.610315256996303956e-02
4.184889619076302691e-02
2.227930454732802296e-02
1.953432363978187258e-02
1.120872245834468768e-02
3.164314142942056818e-02
3.667894869903591537e-02
3.832997338124891767e-02
4.378087207211289744e-02
2.514382197488014559e-02
5.257944614877435065e-03
1.620086580866453296e-02
4.765236852352996294e-02
5.873076641411840298e-02
3.310064841843174399e-02
4.067901938742969625e-02
2.641659307513899782e-02
1.802047142892217874e-02
6.161015562226376113e-02
1.291549216297395442e-01
8.407910032090487595e-02
7.122293438810946287e-02
4.850889753730217024e-02
3.796651834173866286e-02
3.000115793170734027e-02
6.490238814510633503e-02
6.466483149269655617e-02
5.869084831381037731e-02
4.900948316271646482e-02
4.185598903994141445e-02
5.877492269254244034e-02
5.895500768748652282e-02
5.540238335531394442e-02
5.095564156251063126e-02
5.672236393471761368e-02
5.912886531217317887e-02
5.463601933423255230e-02
5.586765042499040185e-02
5.101673760517719952e-02
5.503489987924899129e-02
5.393062251734107027e-02
5.351258355981232395e-02
5.419388271142220465e-02
5.586134403080934147e-02
4.847762985094222071e-02
5.178128153663143218e-02
1.122949249429746055e-01
1.784959756752603210e-01
8.780258376256622199e-02
5.115064615737463516e-02
5.090434195499858594e-02
5.353820529671202838e-02
4.988887505793353910e-02
9.262043173897285819e-02
9.523666021533129522e-02
9.202313826896253712e-02
7.037418179896846870e-02
7.712006884824232356e-02
2.625467499185841352e-02
6.826850672697469535e-02
4.377458279816506120e-02
6.293101301302587991e-02
4.938177725331024254e-02
5.246200529517498767e-02
4.605027083376200120e-02
6.640417934366964203e-02
8.289021013199032728e-02
7.502615134666253127e-02
6.760820191276915858e-02
5.256335969234940397e-02
5.376554864025982761e-02
5.488747039404637262e-02
5.402783974310400306e-02
5.717058317847380222e-02
5.747161484688543404e-02
5.348840792352391182e-02
5.512617322643998535e-02
5.499893173102943233e-02
4.825495866369066550e-02
5.201036654645063706e-02
4.807782573647698815e-02
5.216606664672501781e-02
5.047932051518028151e-02
5.292453763936574157e-02
5.005216910641767381e-02
4.894682521474755937e-02
4.919595954004763599e-02
4.463607861526805443e-02
6.350113200708105976e-02
7.048740570008980855e-02
7.674467058547203291e-02
5.433617572038564741e-02
5.207097965257803662e-02
5.737141284855813705e-02
5.417564486822669390e-02
4.741224674435100261e-02
4.385071751663567607e-02
4.435460854504874595e-02
4.543933346967667791e-02
6.118744241266124706e-02
5.285482217246097181e-02
5.218292925866131055e-02
2.023090448390890417e-01
1.749373826570753410e-01
1.657635324344260697e-01
9.657619599946436206e-02
1.054226892315206637e-01
1.167684723243999634e-01
1.312480843008895781e-01
1.495446576639740677e-01
2.161657066408040340e+00
2.085361064736244163e+00
2.149853909518547823e+00
2.098889171747762017e+00
2.017663743091473005e+00
1.981013318716412730e+00
1.879630521766105344e+00
1.855897543757799584e+00
1.561681360809791030e+00
1.323953951331194645e+00
1.025216813074856681e+00
1.703317424366151966e+00
1.782985001770140743e+00
1.619513585337379213e+00
1.509810234341414814e+00
1.844282790424169205e+00
7.755029872984091632e-01
8.031960298283399302e-01
1.059619418593692908e+00
1.387691406999007615e+00
9.705225775354324735e-01
8.853543317903280752e-01
8.584222151703491122e-01
1.725851802404305024e+00
1.847133607454685134e+00
2.096076466058792498e+00
2.143816981298243718e+00
1.997044186243723374e+00
1.911762798320686185e+00
1.413231902747326130e+00
1.325368425541077810e+00
1.131313006333358961e+00
1.071492746347731950e+00
9.538612315733516756e-01
9.201342354993747863e-01
8.584695327318540015e-01
2.166976135693373884e+00
2.119933725820016601e+00
1.881938443870240008e+00
1.695447635162357303e+00
7.088887354260545726e-01
6.223534769707744774e-01
6.689220556003526719e-01
7.128035845759999045e-01
7.130768603294826979e-01
7.634132039652674617e-01
1.852583579772804967e+00
1.540048397954922654e+00
1.399817109470249843e+00
1.282621184270309689e+00
1.026460043018900148e+00
1.420222902649916019e+00
9.673723087749932503e-01
2.140037505317023747e+00
2.097802651358970927e+00
2.071991752173271362e+00
2.008112619878124505e+00
1.966992468379466175e+00
1.928572895774829599e+00
1.862495753098868834e+00
1.780600708830930801e+00
1.833712328384190071e+00
1.846026171161676999e+00
1.740403500600535169e+00
1.463386873446548053e+00
1.274414361315690858e+00
1.697351651194864086e+00
1.594180059973103525e+00
1.105495775399892189e+00
1.045534837337522838e+00
8.652270510821216121e-01
8.908057741079079550e-01
9.194869619201708755e-01
8.625247288381102662e-01
9.432139893970801214e-01
1.899566469158811222e+00
1.626827224832426699e+00
1.868422989494407105e+00
1.901272070418580373e+00
9.906433704320596334e-01
9.262266140959970473e-01
1.021520366452307371e+00
9.817818635446855513e-01
1.196346440049235405e+00
1.278951916598097815e+00
1.913134954885858496e+00
1.962926155750534418e+00
8.228547781905138914e-01
8.376178399249418760e-01
8.258273448806525696e-01
7.940194959209886383e-01
8.268292396457485038e-01
8.676238667753739531e-01
9.004590765223277060e-01
1.624395455739583660e+00
1.447616147888244997e+00
2.016991382932317833e+00
2.053821170987587319e+00
1.279406222769767787e+00
1.108819004838222488e+00
6.701806098321102523e-01
6.418487281231961550e-01
7.409358196938244934e-01
7.707271090787323198e-01
8.841228470856513644e-01
9.224953281740942979e-01
5.859683282502887725e-01
5.564562888730200108e-01
5.174524811718410611e-01
4.152033301738453641e-01
1.991703929954748098e+00
2.075753163181644823e+00
1.872543376904625800e+00
3.367491574015898381e-01
4.090986537345453478e-01
3.227146329651885970e-01
2.905534368026219116e-01
3.304589022307614088e-01
1.719519332843946646e+00
1.641256018439761322e+00
2.088431232792105519e+00
2.025460010539639644e+00
1.959784153659401840e+00
2.129757735216113890e+00
2.715622046196982664e-01
3.367387549119121304e-01
2.817738200112001046e-01
3.786998797585659493e-01
1.534521293974562495e+00
1.373190400091669261e+00
5.038253827367653592e-01
7.853903852270827102e-01
5.022273301645452381e-01
1.737168062615974229e+00
1.599857193355779916e+00
2.766948539160146159e-01
1.272725077482670608e+00
1.309114734222645460e+00
1.222776573518064458e+00
8.483160300745391513e-01
1.024163303080472431e+00
5.656665477223612459e-01
6.287602471245816727e-01
6.088664763770491595e-01
7.658375959564474034e-01
5.727195880709033959e-01
5.378093557821738147e-01
1.546386046389068292e-01
2.525316766965903306e-02
2.027751249075286366e-01
5.247229331254958939e-01
6.515673158993050551e-01
6.013175523673909284e-01
8.511226841147720990e-01
2.404872640197773526e-01
2.739031221890196321e-01
9.231836795773713522e-01
1.265968956576059901e+00
2.281782237029518490e-01
1.728302906079645651e-01
1.585191229505047650e+00
1.649184587211944386e+00
1.278172624921714851e-01
1.659298648420505159e-02
1.783449270689891231e+00
1.891321869767412123e+00
1.969071712755705361e+00
2.106630767000840621e+00
2.182429094240603273e+00
2.149736977748218703e+00
1.930498064430918870e+00
1.827469526499250208e+00
1.527530389714281123e+00
1.434949799272357884e+00
1.215845977446502024e+00
1.139214185151000702e+00
8.956783113535817797e-01
9.896943355407596954e-01
7.794704136860632904e-01
8.110546551185829900e-01
7.299538839804687873e-01
7.977747519446105606e-01
7.755333093397912547e-01
9.337646886595722950e-01
1.025534110419479505e+00
1.316585156664999756e+00
1.714640135847015801e+00
1.692479533054337182e+00
1.897471354574996383e+00
1.940364743554933380e+00
2.089127138022380592e+00
2.136704550588066187e+00
2.200827189421713292e+00
2.163781086117854802e+00
1.988626940757151962e+00
1.890741097873095189e+00
1.616824908773643932e+00
1.520950909645202520e+00
1.300442720283746967e+00
1.239238531071763294e+00
1.084219743220892651e+00
1.007467346192195912e+00
9.161683024360111061e-01
8.618608987115206066e-01
8.344953479958249210e-01
7.588612305362455457e-01
8.788307816233182912e-01
7.983122230508884476e-01
8.493747769196560160e-01
9.782465066674453924e-01
1.169284937542373282e+00
1.240525986907811351e+00
1.608262884877645016e+00
9.843384732694653305e-01
7.832532378307072163e-01
1.064664607382211692e+00
1.382578443713743832e+00
2.065940198174874176e+00
1.653745789494522667e+00
1.705840459313054946e+00
1.756788084115200155e+00
2.172966636857970091e+00
2.174045959309312437e+00
2.084364732595610281e+00
1.992607317577743453e+00
1.912526399406519362e+00
2.074874618978781005e+00
1.056202306917021216e+00
9.766541065563715263e-01
7.716708144947476145e-01
2.164117895352511312e+00
1.873314964504538604e+00
1.687484098310325642e+00
2.203670348145907010e+00
2.068799433213909911e+00
1.951983089300892260e+00
8.458322299660909760e-01
5.343466762985579210e-01
6.252417053909323785e-01
3.982174897414204606e-01
5.058948110703906931e-01
1.393647878823429220e+00
2.002179518730539343e+00
1.445150714708141049e+00
7.367457824134038269e-01
1.802857248570837623e+00
1.391460013764170611e+00
2.206204963834867694e-01
2.981105657302263179e-01
4.070560145329568114e-01
4.943270832841631934e-01
1.122372152439419901e+00
8.431236152439891551e-01
7.263468738719199846e-01
2.218529016193800718e+00
2.074536644330117863e+00
1.960064872538460179e+00
1.178413437221500937e+00
1.240715667172307413e+00
9.574652905583966866e-01
8.202443133313971346e-01
6.211314096591623590e-01
6.943648012002119341e-01
6.195856181428459619e-01
1.319296418048497399e+00
1.128991604000757043e+00
2.066114920894226881e+00
1.632394376135039460e+00
1.417565965889236113e+00
1.437373088375293984e+00
1.613722661750865706e-01
3.186561521495719917e-01
7.569716399380667093e-01
4.161479217157103561e-01
5.537068748722125955e-01
6.700678914638829031e-01
4.040298327436090409e-01
7.979713157471278739e-01
5.876562522873253203e-01
1.017420342738049044e+00
8.716348207322626163e-01
7.700470478843527422e-01
6.543568200479766839e-01
4.980099227576459953e-01
5.827214431427194530e-01
1.079979437443884027e+00
9.689241781481882088e-01
1.158269168807752436e+00
8.923199678741492447e-01
2.089697684157674207e+00
2.023863484302802274e+00
2.071593862934843600e+00
1.724023851609078228e+00
1.605087168250592944e+00
1.174726932950443725e+00
2.105363247734546750e+00
1.715899012899032128e+00
1.591654855105482103e+00
1.458057990103107660e+00
1.303633276368191485e+00
1.200120319622983711e+00
1.169917950755346547e+00
7.998886253245254263e-01
2.896930486526971826e-01
3.818701397868446978e-01
7.113284252808508290e-01
4.921973959438341040e-01
5.931554688991708124e-01
4.537357871880568494e-01
2.470857625553758985e-01
7.646271386103729029e-01
8.577975750667721222e-01
6.745668885598570252e-01
6.917785150524876636e-01
5.820675518735325404e-01
4.644646395341935352e-01
9.251887123397504187e-01
8.335822147169081875e-01
6.319472200820709373e-01
6.399775788639310292e-01
9.803001573596642482e-01
4.781513201419181347e-01
5.900015228095401021e-01
2.175136167151988431e+00
2.054549065499507776e+00
1.969058080336818950e+00
1.840264029891788500e+00
1.842501216336965397e+00
1.017433699204300490e+00
8.681640071692119376e-01
5.828173177575913799e-01
1.570191395715105021e+00
1.418391248108035851e+00
1.383713513977430587e+00
1.129411271548566686e+00
1.027808800199809580e+00
9.497807845017590678e-01
7.209337265778719139e-01
8.200577472614399843e-01
6.086425979676931552e-01
5.148977498389547547e-01
3.817082094868187170e-01
4.392166946925867843e-01
6.479675909372055731e-01
5.389386808437937049e-01
4.828951017117896205e-01
3.799052685016314213e-01
7.405428047582394147e-01
6.693388162483204784e-01
6.150300528907847175e-01
5.157735019599767323e-01
8.067484061778615878e-01
7.392303236427196778e-01
2.914246699419401621e-01
4.006900089883043692e-01
1.884982224710698206e+00
2.934084721586112110e-01
7.347341987126565499e-01
5.657890267095820880e-01
4.441277669553970187e-01
9.217181441718690360e-01
1.309412714889639950e+00
1.012651584561221840e+00
1.137335831404756581e+00
1.944159033540033610e+00
1.075179098970834746e+00
9.484568939036566171e-01
8.330537299361121528e-01
7.882033268698332984e-01
6.802282736934714968e-01
5.730052659092972345e-01
4.969246549832195825e-01
4.448095261173929948e-01
4.816432661483356359e-01
5.946794383628023484e-01
5.260983965218472003e-01
5.058366629509772894e-01
6.759700191144305537e-01
6.271975073769192610e-01
5.673374831362169024e-01
7.174517882126222323e-01
6.720942628110821992e-01
3.205057298505541441e-01
4.426436237621885206e-01
3.755773771044379483e-01
3.062998827837637994e-01
7.187750742841488849e-01
6.271671261563830369e-01
5.410691479697349315e-01
4.578508167080483915e-01
7.479496624980881414e-01
8.272484510334905394e-01
8.619321652491711561e-01
1.055572615083920196e+00
9.405371571708341927e-01
1.494687484612138073e+00
8.759217658145170837e-01
7.747220148100186776e-01
6.747016304256348018e-01
5.807556787375640628e-01
5.103817523605032047e-01
4.842384407525886503e-01
5.000782378755268542e-01
5.570766168079931413e-01
5.166299653018416871e-01
5.711009671914651920e-01
6.326632466551189715e-01
6.002897910342892551e-01
6.575750937212548886e-01
6.297787628484259326e-01
4.475519820495111878e-01
5.056499368157540975e-01
4.481988010452417348e-01
4.071540163296135661e-01
4.107773430036477658e-01
6.258336958294441477e-01
5.191414174793208547e-01
4.922877976389265497e-01
7.117415733068629402e-01
7.747963068779533113e-01
8.625534206376056501e-01
1.192556600533286382e+00
7.247129860654424327e-01
6.507696176553420253e-01
5.652570991948974166e-01
5.011295375598577850e-01
5.251462594431094422e-01
5.066828674509361585e-01
5.978747808348041648e-01
6.080042645967352888e-01
6.200872816253535369e-01
6.052135296480194437e-01
5.079866070050274018e-01
5.319002664881383735e-01
4.652997347023330454e-01
4.539255632024313258e-01
4.599484279402421549e-01
5.656791838023915719e-01
5.044781032850680358e-01
6.357812392400966628e-01
7.021025271003660251e-01
6.039212012706216548e-01
6.937943747689931939e-01
8.260311076358692883e-01
6.221854107672369905e-01
5.824010426907086924e-01
5.521666205463496846e-01
4.985936767772730094e-01
4.943533863237518644e-01
4.944255669582188761e-01
5.991442861009266263e-01
5.927422683556476946e-01
5.938257816811166601e-01
5.871648164953268134e-01
5.308023061518191144e-01
5.373363371996313642e-01
4.864363058424182595e-01
4.823450851184504229e-01
4.783751286833514138e-01
5.314502063066648407e-01
5.806866196987839901e-01
4.755240005896683719e-01
4.814068789108818525e-01
4.852974435879026105e-01
4.519802420214694139e-01
4.766386254781986853e-01
4.723900018876726059e-01
5.453378293008503963e-01
5.028616037164522767e-01
5.737190171438754094e-01
5.879013067671918780e-01
5.649954984993880158e-01
5.504604622933251257e-01
4.695563305521206487e-01
4.623238765328360755e-01
4.789830869105655697e-01
4.722007355027522668e-01
4.894884248034260255e-01
3.649155414846290690e-01
4.290538167800437286e-01
4.225736034597023516e-01
3.717481373700194380e-01
4.179008347017509339e-01
3.834891893470822599e-01
4.276683530865714178e-01
3.915605726890853400e-01
4.259932374144073663e-01
3.979205285172121576e-01
4.095475690359121623e-01
4.380215091416160278e-01
5.852822859743131989e-01
5.739805667515823773e-01
5.697797323658843061e-01
5.310265675749159531e-01
5.321512647493722437e-01
5.154942320783104659e-01
4.852023005602260630e-01
4.838643025631227390e-01
5.052060985830544304e-01
4.700161868241984897e-01
4.815163847875799652e-01
4.583287656513844732e-01
5.018599798449759897e-01
5.245117247487075529e-01
4.823211997457073630e-01
4.867199469074789953e-01
5.339370558017335622e-01
5.216417358803393522e-01
4.438961767342273768e-01
4.276753406775238298e-01
4.489057850719436749e-01
2.096484455246201861e+00
1.873644114341112221e+00
4.569626835525986142e-01
4.813752640776297054e-01
4.714098283926561050e-01
4.393133553104678901e-01
4.606465682147897756e-01
4.246488604460639804e-01
4.219341142766137032e-01
4.488883826168281743e-01
3.051148609555022206e-01
3.569923440344026644e-01
3.456617893599381319e-01
4.018981908984068374e-01
3.638083178626233538e-01
3.828912794393262153e-01
5.623639252972707503e-01
5.488681419061659517e-01
5.433140095562534189e-01
5.207962022211014563e-01
5.115455238197021970e-01
4.726198718157407219e-01
4.502374835548039189e-01
4.596778211845511386e-01
4.397038249625941919e-01
4.515721616379020920e-01
4.776477877910774716e-01