<?xml version="1.0" encoding="UTF-8"?>
<VTKFile type="UnstructuredGrid" version="0.1" byte_order="LittleEndian">
<UnstructuredGrid>
<Piece NumberOfPoints="5313" NumberOfCells="8293">
<PointData>
<DataArray type="Float64" Name="Temperature_@_t" Format="ascii">
2.233180008038552654e-04
2.179177758475530128e-04
1.358851382238408518e-04
2.262239783749975871e-04
1.394553151877163659e-04
1.584644743163455107e-04
2.254650564657738668e-04
1.455416362518743010e-04
2.179380198959861574e-04
4.701774469941603918e-02
5.199405400417929368e-02
3.053775757570926369e-02
5.802137177760487846e-02
7.708806778945605231e-02
4.459488009203523701e-02
3.677335966015177898e-02
4.489825201097094598e-02
2.630996331656552251e-02
1.051924909606239272e-01
1.641604210689883436e-01
1.244580791402014885e-01
1.408104522822051785e-01
1.396924012076736499e-01
1.538426653357029827e-01
1.318188609082911189e-01
1.299859024150597231e-01
9.351557718831750299e-02
9.914544112447469526e-02
9.316734727151325390e-02
9.158338983944928902e-02
9.266246720441584372e-02
1.005396245982861508e-01
1.053659716668535612e-01
1.084271493727999303e-01
1.128407192829987971e-01
1.100353066307094008e-01
1.104056278337014058e-01
1.141569055186738429e-01
1.118027013289595722e-01
1.149939882983224831e-01
1.134520618853603197e-01
1.161932484500639712e-01
1.518806563072470361e-01
1.733249811942460250e-01
1.148263289428924777e-01
1.184951171788339169e-01
1.182691323957719698e-01
1.226911011270146734e-01
1.226574735869565558e-01
1.752142666554109551e-01
2.373598175108917185e-01
1.022225400854180066e-01
1.087033324303732061e-04
6.717206959872145289e-05
2.934307173105814241e-05
9.665894936035833386e-05
7.058207149786807659e-07
3.099180328020320017e-05
1.095669675214283047e-04
1.794034741128511523e-01
2.853449442488369403e-01
2.521197696626308882e-01
1.672601733162494553e-01
3.814918127686759558e-02
2.569596299858327437e-02
1.405964573982145249e-01
1.515107103950630030e-01
1.601938877870000555e-01
1.440254526414779246e-01
1.375177313427815851e-01
3.862818609059425617e-02
1.056195929714032200e-01
9.340116375041539187e-02
6.797542141267214066e-02
5.274088433330316461e-02
3.022136123381658976e-02
1.265292660652405365e-01
1.167815889642608157e-01
1.121259311928725078e-01
1.164585605407800067e-01
4.754994400480371669e-02
7.906922483327158413e-02
6.237475658822771302e-02
1.047107938748867290e-01
4.947406723047657884e-02
1.138088370462730647e-01
1.028699911163844100e-01
9.400842720520725948e-02
6.178575244464512561e-02
7.471788431708038802e-02
9.418378462335282031e-02
6.438792238100669862e-02
1.009043388462362023e-01
9.382132611667855226e-02
8.294778253976696492e-02
7.320534262546596338e-02
8.689525014767629507e-02
7.477051167103601625e-02
9.182527972039053465e-02
8.754073983615184851e-02
8.060963394962897266e-02
8.455583653382026110e-02
8.005701769457462813e-02
8.630877608173738447e-02
8.409218713832615488e-02
8.207948983461403614e-02
8.120157793740613583e-02
8.303628355402750683e-02
8.222144760424650312e-02
8.082380598076034650e-02
8.001464520469117603e-02
8.080133957291266156e-02
7.905665257815246150e-02
7.773772972324903552e-02
7.870253965824361431e-02
7.672618328599202508e-02
7.478547074734515077e-02
7.632573219113385210e-02
7.405699808281239471e-02
7.128007615682864506e-02
7.203038187305436935e-02
7.346825609433589588e-02
7.013539235538920891e-02
6.760196303926617467e-02
6.333858354868911189e-02
6.665548938303553217e-02
6.449338304144044964e-02
5.409524658678339926e-02
4.697783208704997548e-02
4.229056961914965523e-02
5.196401084393221376e-02
4.109868926770474801e-02
3.702392371771490859e-02
3.430868280237481943e-02
2.714291557286518594e-02
2.510808908907621873e-02
2.853929680596282298e-02
2.436774581271512405e-02
1.916882985905452724e-02
4.724390948715130600e-02
1.829697994662586591e-02
1.533682397137152431e-02
1.387500687285182256e-02
4.017700433877965244e-02
3.340129385603268081e-02
2.205148369023965729e-02
2.874007425698754670e-02
2.323006441288155352e-02
1.879297526444505609e-02
1.513334656826720824e-02
3.710859064008206754e-02
2.919437212336654236e-02
2.842264616498729399e-02
2.477108443192035936e-02
2.161693872237799990e-02
1.891764379869851492e-02
3.622814111603695625e-02
3.037240041144645755e-02
2.798499943849968100e-02
2.535550513424516747e-02
2.465408595880725848e-02
3.679614925540213716e-02
3.144825295633229406e-02
2.778104959538539240e-02
2.660662403573942070e-02
3.949885813798166556e-02
3.353770800577415834e-02
3.635426203343546797e-02
4.044379967554147248e-02
4.632196317643436090e-02
4.608099449067473014e-02
5.093880750024296772e-02
4.145819193832148836e-02
5.303241277385634111e-02
6.355223582865378307e-02
6.412105978456172917e-02
6.539730821267128458e-02
6.215575666848423969e-02
6.659809077872139160e-02
6.932215719602569104e-02
7.234058827622087684e-02
7.291585081074056229e-02
7.434718560369947549e-02
7.598784250559416364e-02
7.056519603797080376e-02
7.434173699121579548e-02
7.667116103571337826e-02
7.850269485440301842e-02
8.113331740383686319e-02
8.157420480605660773e-02
8.043270951752556908e-02
7.753671317136537344e-02
7.950563780130970315e-02
8.149612742306522328e-02
8.224021086022063887e-02
8.138025407618623697e-02
8.016986935381933965e-02
8.265305969937854214e-02
8.169317666583168769e-02
8.374577857022731664e-02
8.369083467895105377e-02
7.915288930594215067e-02
7.888029952172248560e-02
8.600689142133907672e-02
8.353584321526204282e-02
8.706076293078809925e-02
7.416973592068493160e-02
8.093917792415875057e-02
7.302699966233104634e-02
9.152890722465011064e-02
8.759607162257440627e-02
9.402234503796960685e-02
8.545066779919051336e-02
6.567786932363164909e-02
7.526440012735045870e-02
6.451762634825707055e-02
9.966930295980371002e-02
1.031478315442861948e-01
9.699330642041785466e-02
1.108210550577070630e-01
8.028088916517321649e-02
9.248541326685574826e-02
5.263584878596358485e-02
6.636428878072878068e-02
5.466487132659166720e-02
1.080552435836534680e-01
1.136680973478191164e-01
1.336183504390389132e-01
7.174688081467434086e-02
1.109879718492576550e-01
9.117153946438254219e-02
3.622756273843133479e-02
5.454328602271951015e-02
9.529437887571738652e-02
1.268913293313345403e-01
6.121908538222023410e-02
1.525662880404433097e-01
1.708951884715800285e-01
1.506254912320478256e-01
8.121882362511030629e-02
1.139605173943387811e-01
4.005758817742281763e-02
1.196574162565652577e-01
6.243326293547337563e-02
2.722510830781408320e-01
2.455208139943699241e-01
1.621166509655695975e-01
1.010360985496714104e-01
1.516920614086359753e-01
2.163999681080583937e-01
2.339920508814682942e-01
4.676125986863532979e-02
3.096285770472088222e-02
4.231859062334900751e-02
1.350005001107462410e-01
1.375654692610773777e-01
7.498918411636992798e-02
9.443977012733111021e-02
1.033122342948854799e-01
1.289332457158663403e-01
1.555055249769803360e-01
1.295815673223211506e-01
2.848156200992301920e-02
5.822905187668820509e-02
4.826105723354387478e-02
1.052818697516571672e-01
8.024120671045148478e-02
1.116564347697595883e-01
1.161896710669851063e-01
1.117162001691991285e-01
5.279284059657504691e-02
9.847724165042723299e-02
6.630774855112560318e-02
8.603657426902881766e-02
1.008226760747904516e-01
1.091820307207865409e-01
1.013576188278030171e-01
7.017025624609087020e-02
9.125535721688975144e-02
8.086559391506092931e-02
9.448035693938715285e-02
9.958974377289546431e-02
9.510379115422691598e-02
8.225292639576951836e-02
8.829372384214854985e-02
9.186027256631945637e-02
9.368957214356857244e-02
9.134963932669383502e-02
8.768885715027022187e-02
8.948080551910564395e-02
8.899658522409371886e-02
9.000239167802445706e-02
8.825456198433047350e-02
8.709395618246261461e-02
8.722284508500358080e-02
8.625587804362605526e-02
8.516791065930720550e-02
8.438364160445556428e-02
8.290076313308750167e-02
8.298734617238241740e-02
8.080627874486906448e-02
8.097376724967095263e-02
7.903815515151994819e-02
7.869699318009933109e-02
7.971357140142240616e-02
7.457367547159002297e-02
6.549520482282830680e-02
6.756209337036750417e-02
6.560734516636451685e-02
6.353963473384820204e-02
6.575331415746156483e-02
5.661431872670396465e-02
5.188914034793924712e-02
5.214984579944532267e-02
5.660029734854494371e-02
4.845628602584365480e-02
4.218581775691532254e-02
4.391000802984166423e-02
5.228553952547834727e-02
3.582270258508233468e-02
4.295454876503937425e-02
5.082573486526182488e-02
3.357828341100574376e-02
4.291827783885488606e-02
5.195042338137804278e-02
3.562604919738618370e-02
4.365838781624960252e-02
4.806955872679707226e-02
5.590496740437751744e-02
4.176768833113260471e-02
5.130258344545274990e-02
5.588965894533442363e-02
6.454877629188388033e-02
6.461674979142319197e-02
6.585600274603548021e-02
5.110491394893194872e-02
6.243895948622648490e-02
7.089714659523668749e-02
7.795144037469052545e-02
7.718020780526116398e-02
7.891057822348895856e-02
6.396368186632052366e-02
7.877638083675089775e-02
8.081148884214042760e-02
8.220362703689221284e-02
7.542411109364177690e-02
6.240210081171324030e-02
7.683170869208404141e-02
6.740247385558245652e-02
7.680490833533985817e-02
8.089483174026373957e-02
8.303939216779249177e-02
8.467851796397035669e-02
8.258456378650499974e-02
8.352720668194373033e-02
8.606732613014635158e-02
8.610382071449448893e-02
8.490917821900238749e-02
7.828879035752200899e-02
9.189049313075722814e-02
7.104640759501099079e-02
5.972636206878410153e-02
6.110526536529695130e-02
8.683744307395412088e-02
8.623017813503755513e-02
8.613085969150469090e-02
8.529227178812379129e-02
8.415909881863711806e-02
8.818145913466876595e-02
8.827648693688024129e-02
9.383889258876725037e-02
1.067231439359049711e-01
8.327805828245292419e-02
1.009942923420825700e-01
6.766295061246947740e-02
3.696711715515631214e-02
8.785963104946144242e-02
8.714125955862078721e-02
9.217272920076911846e-02
1.013632860681381032e-01
1.134611285655918039e-01
1.291993213060930457e-01
1.207767336423201943e-01
9.164450815116298443e-02
1.238674765240491554e-01
6.480712586961293042e-02
9.113566568569650417e-02
1.081867638426442096e-01
9.806155414085605815e-02
1.528071119103591724e-01
1.386165196621581552e-01
1.218872687437732721e-01
1.162674421437717570e-01
1.556845661214116827e-01
1.802904988195218605e-01
1.119489920431750857e-01
1.786842928417741450e-01
1.584650431601694054e-01
1.312647362497911252e-01
8.935123476452774827e-02
2.648661060380314014e-01
3.006405903626339637e-01
1.305245421938756589e-01
2.652233724842609913e-02
1.758727498137383632e-02
1.688943820717872524e-01
2.716603003829056173e-01
2.288998785336574804e-01
1.608136458783088751e-01
1.693848987219144231e-01
2.270577043428894520e-02
1.304941331688503486e-02
1.345580069221752328e-01
1.364638534536167791e-01
9.042659456110871408e-02
7.709865582818915819e-02
5.867528920980039780e-02
3.434766749837064870e-02
4.569332535678771040e-02
1.336889019558611114e-01
1.331017246208393567e-01
1.222282077265851308e-01
3.248055851199124072e-02
9.982590441901938172e-02
6.721805190793198048e-02
4.858169354972710630e-02
1.082426846231846623e-01
1.099554109450090189e-01
1.066144655426166793e-01
5.235989594590834129e-02
8.582741472917462811e-02
6.779778509896307315e-02
9.491078443358465233e-02
9.725433729195065435e-02
9.543084024849078639e-02
7.078511259219047447e-02
8.270914657490809063e-02
9.040165660674620574e-02
8.994637136717223425e-02
8.900890053665679036e-02
8.197223840253142768e-02
8.589879194313299049e-02
8.598853066074554907e-02
8.512718870092352008e-02
8.442568107401167421e-02
8.429257137331572225e-02
8.300189194520229963e-02
8.247911407483633772e-02
8.171386685928380689e-02
7.962292270553203433e-02
8.352042309976641377e-02
7.229627781472010295e-02
7.525917750142896434e-02
7.431221432880266708e-02
7.283818920360383975e-02
7.173475266430240360e-02
7.517115504373447776e-02
6.873897787594221431e-02
6.682060043379606240e-02
6.270298085522553466e-02
6.410924399765144388e-02
6.820444411850024036e-02
5.545922742015080981e-02
5.914007750126263480e-02
6.353233673659539060e-02
6.851171209945604301e-02
6.926224171221334602e-02
4.495967233127629720e-02
7.159667944332143152e-02
6.665915895589748230e-02
5.030138732744521279e-02
5.548149107949814501e-02
6.232165231265091032e-02
8.842780802570331111e-02
8.422939643247896735e-02
7.914154784967576683e-02
7.595218568756978428e-02
7.387366012209371779e-02
9.610368935852321715e-02
1.139218350122711276e-01
4.847965026444751163e-02
5.544727454187595855e-02
6.331208928136627945e-02
9.720501231674244513e-02
8.725666080999740226e-02
8.494879275258056250e-02
8.140252954607991864e-02
8.175620394388560808e-02
8.470549686476248896e-02
8.456363267737643241e-02
1.220236728675428289e-01
1.458548330753483557e-01
1.158781252428383868e-01
1.322494441550564059e-01
1.427236071617376534e-01
1.122684666519983970e-01
1.133304542924631619e-01
1.667909676383364792e-01
1.550391870597438437e-01
1.773288727631562312e-01
1.374151663559360637e-01
1.888100704019955167e-01
6.494174506633536292e-02
1.043501055010233741e-01
5.896905219733954845e-02
6.776811654064635038e-02
6.368197856280788383e-02
6.626046429586202047e-02
6.817587464914083573e-02
7.450890795718517756e-02
7.112903539942917741e-02
7.353989328456621288e-02
5.014446403527380441e-02
9.441711267140932839e-02
8.723870583255700917e-02
8.536352211947149937e-02
8.468669744100550123e-02
8.712555848599723429e-02
1.090772786440219744e-01
1.027897417999053958e-01
1.082481643000289401e-01
8.415965485433056503e-02
8.328741476332068849e-02
7.450704385108128380e-02
8.259478067387494848e-02
2.592119300295654960e-01
2.927650388638038392e-01
5.512273288189402376e-02
6.216869973514148329e-02
7.210129772563284023e-02
9.191308538150448626e-02
8.670261559870327817e-02
9.871807117045879043e-02
7.881742103173948466e-02
8.128728976319664346e-02
8.195252969255799325e-02
8.374504828148893187e-02
7.152423020384940378e-02
9.051545584729976668e-02
8.532361436794179410e-02
8.094149761559785161e-02
3.498866052396983062e-02
5.968092012076952474e-02
3.248327692725626326e-02
2.618787141995698037e-02
1.518528701630394995e-02
4.040448067188682352e-02
4.709966125456931108e-02
4.419967600353708059e-02
4.880049376852386989e-02
3.202352352460473978e-02
6.902000132911497929e-03
2.101684264260227086e-02
4.857054092883097973e-02
5.406794272281979785e-02
3.874134720847490637e-02
4.393643472429514807e-02
3.179864555848203878e-02
2.274905846155420366e-02
5.590884151459327156e-02
9.577539340313830085e-02
7.027006815776337678e-02
6.173484675259936078e-02
4.814904661262750518e-02
4.104492630977997492e-02
3.464220161401965203e-02
5.672694804980948913e-02
5.725512558543131153e-02
5.393546381786313432e-02
4.784586595845045226e-02
4.336431019052931768e-02
5.290821876876530133e-02
5.295400725921476509e-02
5.100051104366994104e-02
4.860660013705658811e-02
5.131904746204858647e-02
5.348293044536187035e-02
4.966988561020452969e-02
5.057196347053491414e-02
4.683603878973860435e-02
4.981999153740834102e-02
4.899006854144345724e-02
4.849506298544006833e-02
4.906700919962837804e-02
5.056019596760061990e-02
4.391958157366272070e-02
4.688250348768838172e-02
1.136120578732326969e-01
1.925244517073018968e-01
8.992383484275617844e-02
5.405795623141785439e-02
4.605621082266770500e-02
4.841362570898388729e-02
4.516160938754194831e-02
9.304692577846451762e-02
8.665565456964251234e-02
8.695363857502580451e-02
6.215075544446596600e-02
7.036391247239663638e-02
2.811079850952655224e-02
6.970375877257045660e-02
3.734143082717439333e-02
5.607847518665436126e-02
4.463179006130661708e-02
4.738418554238918445e-02
4.165635097180609564e-02
6.017201825128179471e-02
8.101316908787099813e-02
6.992606115331968797e-02
6.837288281473910545e-02
4.717335267731266601e-02
4.821862304326305498e-02
4.927148148472897116e-02
4.844629950515602634e-02
5.122288301187018916e-02
5.123020071004227849e-02
4.755462597068813718e-02
4.931874905958949507e-02
4.918118246812609728e-02
4.355690539482835050e-02
4.691283952460418433e-02
4.333274269184566457e-02
4.698315685747427028e-02
4.535468706883716977e-02
4.758962813429890720e-02
4.493820605775786931e-02
4.404639222185158243e-02
4.419357586805193472e-02
4.032356487094386488e-02
5.768791960484898063e-02
6.536685184047892616e-02
7.389695899383942612e-02
4.870276093927389249e-02
4.671390185883623342e-02
5.161467273443415965e-02
4.860929524781611166e-02
4.255769527568226823e-02
3.955773329860736570e-02
3.994984832758965987e-02
4.085704083726186125e-02
5.547222392740971258e-02
4.742549887077877890e-02
4.689930122825014536e-02
1.441425718423021141e-01
1.288186829142646539e-01
1.261377749621371003e-01
1.063139277772872232e-01
1.080940147508194227e-01
1.098305505773970597e-01
1.129131114374919836e-01
1.182895641211640786e-01
2.149882219094443769e+00
2.099248318904233912e+00
2.123386178325378015e+00
2.059438911320784715e+00
1.950004768712758407e+00
1.899216977145361751e+00
1.741832695508158890e+00
1.704753858344349338e+00
1.350552726522375790e+00
1.136054756038047175e+00
9.273672430892632157e-01
1.770735260981839199e+00
1.830835417637207252e+00
1.432159091179354249e+00
1.289679150891611892e+00
1.684255637940641259e+00
6.764567382186154054e-01
7.298268506420408919e-01
1.138275424464437302e+00
1.494384846035173409e+00
1.028111079275717099e+00
9.006009599411483046e-01
9.420874577126102656e-01
1.792473506300497288e+00
1.895003107664031017e+00
2.070702088318230327e+00
2.114143437283871219e+00
1.994066249321139406e+00
1.934609390825759556e+00
1.479003993651890170e+00
1.399254776263907818e+00
1.185366271109434599e+00
1.119798005679645048e+00
9.856889365439263084e-01
9.631791172523093136e-01
8.900593781683047157e-01
2.120775010880555644e+00
2.064458299548241005e+00
1.815331915975260113e+00
1.616012471919400673e+00
6.139381638554861631e-01
5.361291141083230904e-01
5.758449657595114957e-01
6.688440544674681965e-01
6.316267771918129270e-01
7.264397795586181594e-01
1.899123255487118467e+00
1.620759646404321463e+00
1.331148937312775837e+00
1.213337556191691258e+00
9.740217160801334373e-01
1.277448669681898963e+00
9.264336364650948008e-01
2.141983187072525219e+00
2.125601907719221639e+00
2.058533109648621018e+00
1.977373411128388270e+00
1.918617403753989148e+00
1.859424105385616866e+00
1.757781625119673397e+00
1.662245932052633046e+00
1.868664590598283715e+00
1.862273279715230156e+00
1.813231036052453282e+00
1.564263267705429339e+00
1.393370224534233204e+00
1.775516603377285785e+00
1.693219839743413502e+00
1.046270725164274218e+00
9.336487985998457306e-01
7.668824695002510738e-01
8.004561863712498226e-01
8.231448144927633326e-01
7.746591953314614365e-01
8.549293280096292857e-01
1.804811930629177441e+00
1.496990607041355448e+00
1.867880443207683649e+00
1.877605458737278799e+00
1.085851727759039376e+00
9.852942595868156017e-01
1.098759197636606455e+00
1.067188932025363135e+00
1.298333406789379696e+00
1.371377719980000576e+00
1.883181065505951768e+00
1.906440326210709246e+00
9.107790396743795647e-01
9.213669975111196120e-01
9.025136879867073914e-01
8.375118100772457330e-01
8.827645464450216695e-01
9.400443065354592287e-01
9.646969530216688016e-01
1.510737915093037120e+00
1.326824957666143501e+00
1.919980101534832784e+00
1.962847010156281824e+00
1.166205144852194397e+00
1.019604548367002428e+00
6.255540852137873031e-01
6.056371131232728411e-01
6.854993920604026680e-01
7.016623873838550018e-01
8.052132978686669107e-01
8.092576707095854305e-01
5.356965013795023101e-01
5.279134369130565885e-01
4.738026326449049641e-01
3.889532816638914259e-01
1.930423936547857044e+00
2.032319681982325044e+00
1.773167789552352325e+00
2.859940787974684651e-01
3.129228194589267487e-01
2.794293827303944711e-01
2.670648433108763209e-01
3.012754945450329958e-01
1.573168037498367200e+00
1.467554569936888820e+00
2.074579483548371517e+00
2.023580280222678773e+00
1.891723575185316975e+00
2.095954116605267981e+00
2.595856400741051173e-01
3.141369896353311542e-01
2.613352739270663472e-01
4.136820159061925239e-01
1.334641774442098416e+00
1.135687063181626710e+00
3.979945564508333145e-01
6.493249890972294658e-01
4.459706055463542040e-01
1.765775506932486749e+00
1.651427751702934543e+00
3.143472820179306071e-01
1.032027485302432268e+00
1.369933751631034369e+00
1.302067218875932797e+00
1.000130758470257231e+00
1.085909747756716337e+00
6.599989521598752518e-01
7.240803072898046588e-01
7.322937752494153019e-01
9.145041751056106616e-01
6.372232499062669975e-01
5.902515810044995925e-01
1.553273869953956388e-01
2.460384375007958896e-02
2.037980457565429226e-01
5.739682159621266599e-01
7.197048498364553293e-01
6.428975783779268260e-01
8.895065113227496045e-01
2.420969655512086871e-01
2.760504230877376952e-01
9.589519297379974772e-01
1.311373259537103486e+00
2.302178362707479053e-01
1.747456734377868248e-01
1.621188215763611051e+00
1.681622181704532482e+00
1.290739576528354970e-01
1.594761128111389648e-02
1.804194806453770505e+00
1.900719931841382770e+00
1.970443174489978633e+00
2.094902897471397463e+00
2.158334797135763594e+00
2.123017935669501366e+00
1.894834984440805670e+00
1.788028675263936274e+00
1.483784961941951197e+00
1.391333685868007208e+00
1.180417503668232060e+00
1.067176426005076895e+00
8.209167911798018746e-01
9.254327302075373574e-01
7.307299131930403702e-01
7.457623794150908259e-01
6.862071600805090821e-01
7.640543896731645246e-01
7.792629201371907843e-01
8.990346096469640225e-01
1.049079355630785360e+00
1.322769546814121178e+00
1.707006644965462616e+00
1.685829910281213762e+00
1.879228754824269654e+00
1.920600350145159174e+00
2.063471162900329503e+00
2.109877863384825858e+00
2.173726602491080406e+00
2.136758122133032511e+00
1.966967480820017711e+00
1.873773710374692980e+00
1.603204214318073362e+00
1.513186500119312772e+00
1.293461595167612721e+00
1.240787648687618150e+00
1.096518294037486907e+00
1.003612127772663731e+00
8.865596378952717016e-01
8.637032432062573539e-01
7.500932513603237872e-01
6.604039733652190547e-01
7.525730551286369252e-01
8.046117265129751894e-01
8.522606802745192889e-01
8.873759548884223580e-01
1.075705033012351874e+00
1.153096137070688476e+00
1.508487520871624632e+00
1.026360005911943096e+00
8.566161219974141039e-01
1.162786170921856321e+00
1.493511919176155889e+00
1.997659693927627211e+00
1.562410736037908476e+00
1.774294617879767388e+00
1.815910776797120318e+00
2.122897926752191466e+00
2.141567621629341556e+00
2.068310913310671406e+00
1.996956298431832755e+00
1.932139308025666136e+00
2.089949331191426118e+00
9.127742217733099128e-01
8.492031342237698066e-01
6.740930879766995343e-01
2.175987172176672590e+00
1.908815163774287393e+00
1.737572872968815352e+00
2.184192700865138281e+00
2.023082205615320373e+00
1.857664936128455402e+00
6.460980692870786912e-01
4.490490434386875118e-01
5.442896413707734027e-01
3.660507767472206964e-01
4.362754154812313323e-01
1.486905263831252322e+00
1.997584068505112276e+00
1.501714951182760105e+00
7.736806875457747923e-01
1.843857527677169594e+00
1.440743162741690231e+00
1.621096773633113886e-01
3.228379395718802281e-01
3.858976490894087119e-01
4.455287397309154462e-01
1.215568786540558444e+00
9.615850102062558635e-01
8.074156261563993908e-01
2.176680430696194879e+00
2.052958151337147097e+00
1.967828316293079638e+00
1.245749396121321739e+00
1.296065257675886873e+00
9.871771757478933207e-01
8.448131647522936216e-01
6.787301647848299480e-01
7.035884155320354383e-01
6.450678255538960792e-01
1.371922486670027030e+00
1.186292510253316834e+00
2.002277283722648349e+00
1.562482271076085283e+00
1.346531180714559239e+00
1.303503119018718515e+00
2.306703734568720243e-01
4.219115394850919132e-01
6.957292692555945290e-01
4.737205989609002410e-01
5.235805731728561119e-01
6.386930068220383339e-01
4.825958816442849630e-01
9.453849297366092586e-01
7.005590112071065079e-01
1.081050322657076679e+00
8.986865035034127258e-01
7.850445484364466653e-01
6.977426304857043959e-01
5.396064708510889263e-01
5.943820314439113295e-01
1.144168037792290260e+00
1.020181818042503963e+00
1.039917052008138665e+00
8.100920197793073374e-01
2.111772759946502376e+00
2.068864555225541135e+00
2.061705529802629666e+00
1.793724057516481674e+00
1.691236449293033406e+00
1.275728690649770014e+00
2.149810962797181535e+00
1.785681891503990926e+00
1.520769799242572606e+00
1.389851001251881435e+00
1.237715714694404667e+00
1.149108195258443654e+00
1.126924526741428290e+00
7.378640153772718646e-01
3.750683769165351622e-01
4.784974992075817779e-01
6.874717326973761589e-01
5.544534911841936253e-01
6.262571770168883223e-01
5.250782015981785289e-01
3.351786454006198679e-01
8.051254198464483647e-01
9.093403658380785348e-01
7.323666404858446555e-01
7.469783986136910858e-01
6.446904432846333188e-01
4.829770226572757119e-01
9.772689769631912604e-01
8.751051118801308482e-01
5.777226710359180117e-01
5.759011554128454780e-01
8.472293969162950633e-01
4.468035750358209102e-01
5.329958246867541050e-01
2.182791557667315363e+00
2.040170814306844438e+00
1.921365375694015221e+00
1.890676422895013697e+00
1.863696298051934486e+00
1.133009327780466480e+00
9.930712836809518773e-01
6.701137250603939055e-01
1.653748560640080800e+00
1.504469505379718353e+00
1.321055496389476946e+00
1.084541231984757825e+00
1.003285121902544264e+00
9.095204006841318689e-01
6.445526328982532638e-01
7.518847348194004354e-01
5.976161199113645406e-01
5.326059011711089530e-01
4.935829745297518056e-01
5.345381133209604618e-01
6.857817365198582982e-01
5.787112903883685489e-01
5.494164526177878205e-01
3.410627492473434219e-01
7.980154440193034660e-01
7.012683327819424495e-01
6.623791527684160796e-01
5.799091562811179434e-01
8.599066749499264528e-01
7.666868538474882477e-01
2.579366536685377409e-01
4.417717966936575702e-01
1.873071290390444066e+00
4.471482667411960099e-01
8.392823507335994693e-01
6.470989440262364667e-01
5.450574600395881042e-01
9.738261974950728206e-01
1.397280969444369081e+00
1.105683019678254109e+00
1.221603418299854082e+00
1.897438530079864627e+00
1.043289632115457222e+00
9.309007183491044835e-01
8.308352994787566725e-01
7.679152927640926496e-01
6.928175854506912756e-01
6.144908426986602779e-01
5.585550955576393806e-01
5.276961262431686395e-01
5.290002048241644328e-01
5.562533045560619227e-01
5.636293923825453911e-01
5.626923271715827957e-01
6.627565353319859742e-01
6.139463037969917769e-01
5.839774484188378079e-01
7.147342629504007672e-01
6.580735262046918388e-01
4.060268887224027234e-01
5.187299268384445439e-01
4.621313893014784013e-01
3.603037776621853538e-01
7.941483272887980283e-01
7.238536988923658377e-01
6.405938307939958998e-01
5.422682774539115957e-01
7.984350478767299197e-01
8.783356599034878309e-01
9.319724575402401623e-01
1.140690406979271820e+00
1.025375513602853728e+00
1.379570832498200561e+00
8.693907512644200031e-01
7.869737723132935736e-01
7.132791806267544388e-01
6.273954458025762237e-01
5.504991589612000524e-01
5.260243514372623386e-01
5.287189356445892718e-01
5.609812237569962168e-01
5.307201337673778108e-01
5.830172846348959936e-01
6.190182054852848559e-01
5.910497997984739404e-01
6.458726220981744204e-01
6.176519427146878183e-01
5.347901795515683787e-01
5.658283127384481359e-01
4.748972940275741905e-01
4.451486227497807868e-01
4.490606490380741334e-01
7.220221208841453020e-01
6.069525281958086937e-01
5.002863008495401775e-01
7.903675070792680613e-01
8.484644892143056172e-01
9.629120122487744293e-01
1.092219600440857086e+00
7.276272541532967653e-01
6.604162042424430723e-01
5.674225944006082711e-01
5.247686192135638805e-01
5.277115340744160665e-01
5.176957974535211227e-01
5.940499481856333919e-01
5.976473606987940945e-01
6.084451761711420215e-01
5.938157090526856585e-01
5.684835132659384893e-01
5.545599101352557403e-01
4.590327329343270590e-01
4.575280899046768046e-01
4.729172963898750082e-01
6.151646488615224451e-01
4.997196090496148768e-01
6.878636016618688842e-01
7.605305251469054451e-01
5.319458890942470042e-01
5.975924754163564057e-01
7.633584139829979742e-01
6.100609759301959256e-01
5.786303746810246285e-01
5.586089477907880685e-01
5.088058905820318500e-01
4.978740583013651078e-01
5.008737330105396124e-01
5.895449319816125078e-01
5.817206398547426494e-01
5.823150981172915408e-01
5.756732965124321533e-01
5.574516231723709581e-01
5.500919419269836297e-01
4.832768118144525338e-01
4.820655690194756149e-01
4.776004384687621007e-01
5.267907134520943835e-01
5.828035994144100673e-01
4.300772081638769562e-01
4.352501367148601807e-01
4.446021220402029406e-01
4.195844042116924077e-01
4.366976342952906820e-01
4.300010766785884453e-01
4.894812168046202006e-01
4.551609111962598986e-01
5.076299164470661207e-01
5.248596232854145782e-01
5.650784421856650530e-01
5.550670934012362778e-01
4.738400050257167706e-01
4.657315671453103878e-01
4.844604856001244464e-01
4.219369005139436135e-01
4.347786052497389364e-01
3.028912796911892857e-01
3.439574879867655643e-01
3.439810828565694756e-01
3.105039060365463732e-01
3.400525229916928072e-01
3.192230923553669442e-01
3.487528871535978126e-01
3.250907175750185063e-01
3.467003917973309757e-01
3.296686002568435248e-01
3.379579702005853226e-01
3.568834407469648751e-01
5.742365333670782501e-01
5.623145706054261117e-01
5.578567795931070883e-01
5.436276769363853623e-01
5.398396047771215622e-01
5.174624776533504056e-01
4.865264040118448818e-01
4.828478638836077308e-01
5.030954985401652202e-01
4.220739567314043539e-01
4.342296980388452576e-01
4.070870580139921979e-01
4.487118879365897262e-01
4.658559715789484246e-01
4.871729146942658795e-01
4.925330962462559636e-01
5.382756370822560088e-01
5.266284680017986330e-01
4.473642771765586890e-01
4.307673945100946589e-01
4.526128740956076868e-01
2.057785229334414101e+00
1.776932109570307450e+00
4.003790321256274209e-01
4.156499484159570379e-01
3.973528453137191163e-01
3.769924664677331005e-01
3.813206144511023798e-01
3.586141523366481731e-01
3.515315431709174487e-01
3.672220782731969724e-01
2.712449207884611302e-01
3.031902761196539342e-01
2.957748238789607576e-01
3.343243072481751343e-01
3.076287223046747510e-01
3.206471287851851426e-01
5.504980965256404124e-01
5.364972602688593550e-01
5.307001337903298754e-01
5.271042280215132436e-01
5.148005811084802597e-01
4.764537398958145209e-01
4.519327340380773772e-01
4.090699110127301585e-01
3.870796784416618563e-01
4.013807374328046129e-01
4.857016093307239823e-01