<?xml version="1.0" encoding="UTF-8"?>
<VTKFile type="UnstructuredGrid" version="0.1" byte_order="LittleEndian">
<UnstructuredGrid>
<Piece NumberOfPoints="5313" NumberOfCells="8293">
<PointData>
<DataArray type="Float64" Name="Temperature_@_t" Format="ascii">
2.504912654028251351e-04
2.443743296206318978e-04
1.523889125602792061e-04
2.536877864225125048e-04
1.563854280006079784e-04
1.776985879590957764e-04
2.527654781947376696e-04
1.632018501493277243e-04
2.443996434504213246e-04
5.932710718305018310e-02
7.155677805691992854e-02
4.135466587041907588e-02
4.970247739583217444e-02
6.209519757434724813e-02
3.679453682567562778e-02
4.697408355939226843e-02
6.459534614598469449e-02
3.833182891690566085e-02
1.185533484033672869e-01
1.841651398673944950e-01
1.437220122956873458e-01
1.871529658785007766e-01
1.840410017685929212e-01
2.225240967944177028e-01
1.630228354440020344e-01
1.554292480396158582e-01
6.840024707632565149e-02
7.294685544519761977e-02
7.264322883896004446e-02
7.161326088624768438e-02
7.544465140060613306e-02
7.085911239441290699e-02
7.474215609860260234e-02
7.580770366952423178e-02
8.032900683453626789e-02
7.705210597390457772e-02
7.920973695735247788e-02
8.485618521621982047e-02
8.541341258886712973e-02
9.133890092715291065e-02
9.271492771241161834e-02
1.005273765920375040e-01
2.214107913231418978e-01
2.703970251498117872e-01
1.014292516698096502e-01
1.132269016837662706e-01
1.165262424536558511e-01
1.307774216258771049e-01
1.331610172442158624e-01
2.743885242382955725e-01
4.079665095022846355e-01
7.098087760321272754e-02
1.219019882571007981e-04
7.532199720744511113e-05
3.291487077669603961e-05
1.083922523617280470e-04
7.371503857352923875e-07
3.475327273675615054e-05
1.228654170198374956e-04
1.722332158940164115e-01
2.495891620315746351e-01
2.481295884822384834e-01
1.574801198796879076e-01
4.814784080168412611e-02
3.225700448553654731e-02
1.239127689650324077e-01
1.511908230978954715e-01
1.598415363779101261e-01
1.416312986401238039e-01
1.318202049029589262e-01
4.710210395500771113e-02
1.136096396362285404e-01
1.063939521348924860e-01
8.007818723138905581e-02
6.287418265826193176e-02
3.644830218232555930e-02
1.205972031716601306e-01
1.159501319278391784e-01
1.163501832242637424e-01
1.177549664567957011e-01
5.586777397431234859e-02
8.763276257951124748e-02
7.110439852102667935e-02
1.071723650198693756e-01
5.745339131235926294e-02
1.129493384318206173e-01
1.050572295726670963e-01
9.917626657310733840e-02
6.979015061929749741e-02
8.207605701033890422e-02
9.834308826680475402e-02
7.201971458436814966e-02
1.032113342386014321e-01
9.762461756875191743e-02
8.888277988769729965e-02
8.018266130471272957e-02
9.190550791514996709e-02
8.141083256144152069e-02
9.587305177510077603e-02
9.221151918403171222e-02
8.642888833657400016e-02
8.966920332110528413e-02
8.579577767330075211e-02
9.106182720362256122e-02
8.906989321761664413e-02
8.731344917478421619e-02
8.642539162918595752e-02
8.799985848894968654e-02
8.722875724187421909e-02
8.581083385151423715e-02
8.494209326688029194e-02
8.572130681979257816e-02
8.386203704602999964e-02
8.241561573321468104e-02
8.346160378887758358e-02
8.130127628906694270e-02
7.917497363513739672e-02
8.085852621590186584e-02
7.837648356759520374e-02
7.534310931851151416e-02
7.616129611646052511e-02
7.772972128171468098e-02
7.409175937875595030e-02
7.133807133867484107e-02
6.674298102064318838e-02
7.030856561314596798e-02
6.793824131558774682e-02
5.693180389262249980e-02
4.939363064000246856e-02
4.445445548294240518e-02
5.467256022815824429e-02
4.317674533177135593e-02
3.888449820887710656e-02
3.602120384910470485e-02
2.849381860193845109e-02
2.635195336403560462e-02
2.995347054987504073e-02
2.557049717147461335e-02
2.011586277397885494e-02
4.965046987431177145e-02
1.918707820695591051e-02
1.608954683332839905e-02
1.454784693333882432e-02
4.217964937979095524e-02
3.505588136757686879e-02
2.313245303286075652e-02
3.015488109851201248e-02
2.435808644590748209e-02
1.969991047237212509e-02
1.585738528237573206e-02
3.893103648118147186e-02
3.061996671481308219e-02
2.979899220482840408e-02
2.596417607710507433e-02
2.265127314103498879e-02
1.981619768377604340e-02
3.798291382394031884e-02
3.183382357835196075e-02
2.932189856647975101e-02
2.656127262197362573e-02
2.582139614578706291e-02
3.855322887283893496e-02
3.293906471758675791e-02
2.909549289007418507e-02
2.786054506649584053e-02
4.135600400153281037e-02
3.511294951303070566e-02
3.805028438672104774e-02
4.231796984299434489e-02
4.845141374645452886e-02
4.818072973780916646e-02
5.322803132010377192e-02
4.335739754644453436e-02
5.540491736934240879e-02
6.634602381662162152e-02
6.690181264186563503e-02
6.820939000392220453e-02
6.487571303476087625e-02
6.944727214545828864e-02
7.223928284230708707e-02
7.533786551149267152e-02
7.592622027430862008e-02
7.739671154734471814e-02
7.907800713944566906e-02
7.351728544936848853e-02
7.739287861120520973e-02
7.978153932008447136e-02
8.165452182328550301e-02
8.432625031506371660e-02
8.469935744239648345e-02
8.361241170416390533e-02
8.067337831133611359e-02
8.268793802481369526e-02
8.475327348852082499e-02
8.541335960236016989e-02
8.428046557845454700e-02
8.338754441541405826e-02
8.600865137749005851e-02
8.456484360938870681e-02
8.715877448170322728e-02
8.696545831314905772e-02
8.153550351238539329e-02
8.113927929136459383e-02
8.974114428811100219e-02
8.661046693502780225e-02
9.088063157572240369e-02
7.567223104102760445e-02
8.335984403787549679e-02
7.437575908847390838e-02
9.626342299825577098e-02
9.121969198862264760e-02
9.915019785509271433e-02
8.829257709065853332e-02
6.626116499929476933e-02
7.665579667520462659e-02
6.490924966010176711e-02
1.065758258611065601e-01
1.105419805795549160e-01
1.019998818536416163e-01
1.187879311682080996e-01
8.182241205444951149e-02
9.575637747786262810e-02
5.232524192389920864e-02
6.652090825227575943e-02
5.419947562121398693e-02
1.185839482129672079e-01
1.250053463262092990e-01
1.455707678867667332e-01
7.171909477630772356e-02
1.168390462910434968e-01
9.327138479956030570e-02
3.535549624887422693e-02
5.350324669567163571e-02
1.079572060248837617e-01
1.426704609438973759e-01
5.961991810383930612e-02
1.701285451433654505e-01
1.871100156573124174e-01
1.610183936492000645e-01
8.105724624328641825e-02
1.175925280932828415e-01
3.804113524460078777e-02
1.448269956116755575e-01
5.901102987613303374e-02
3.082739553851076564e-01
2.612091866926119499e-01
1.712450673550630909e-01
1.008024734218200824e-01
1.516553579199617641e-01
2.334991865923029541e-01
2.330938788391788974e-01
4.009938588367359391e-02
2.650827689843655161e-02
3.687666489437761708e-02
1.316106932189012868e-01
1.341630369447096016e-01
6.645613139004652448e-02
8.551979730388706291e-02
9.666601273541118589e-02
1.259628395119495037e-01
1.570326799253532746e-01
1.279105853620928490e-01
2.497124329326587053e-02
5.140094088561996538e-02
4.275123554196683107e-02
1.001147593297697230e-01
7.340125204266920167e-02
1.078094233642384603e-01
1.148274443824677943e-01
1.085752557116104883e-01
4.724512064824438334e-02
9.358588879994476917e-02
6.026444555940521641e-02
8.025290441142583775e-02
9.648078361226274102e-02
1.061457733512823493e-01
9.738365413123349634e-02
6.442683288625750126e-02
8.618516616795449115e-02
7.528378479143070512e-02
8.988289411297202547e-02
9.559049630541338605e-02
9.074238512498218612e-02
7.685429217485521824e-02
8.332182523550762943e-02
8.725902121840892200e-02
8.930807907399650192e-02
8.687604456237740802e-02
8.283881638957450722e-02
8.484737650807447351e-02
8.456477571142942407e-02
8.559674432051472825e-02
8.374669601075884762e-02
8.277072410585019357e-02
8.293040470185074342e-02
8.199511243387530568e-02
8.099665880578302279e-02
8.027337553157357086e-02
7.889300192019242652e-02
7.897323022873746490e-02
7.694321478555025962e-02
7.709937880316114489e-02
7.530204570079282456e-02
7.497663403750687294e-02
7.598081480718796299e-02
7.109191857121636982e-02
6.247630649977695821e-02
6.446193431822649922e-02
6.261871048532358097e-02
6.066874739606198386e-02
6.279526679834111780e-02
5.409192876139760214e-02
4.958486136187119364e-02
4.985039418991030896e-02
5.410602993801702509e-02
4.633570816763150912e-02
4.034140464969157569e-02
4.199775249465683563e-02
5.000868077124099448e-02
3.426938435584485354e-02
4.109431141150262506e-02
4.863000070327915675e-02
3.213003535054933385e-02
4.106911365744376347e-02
4.971945475029192901e-02
3.409557667679840448e-02
4.178490795582279899e-02
4.601169448001561635e-02
5.351850382461371264e-02
3.998105166582774372e-02
4.911343473687351802e-02
5.351431890579610301e-02
6.181246616592029480e-02
6.189023405497640073e-02
6.307866755190602581e-02
4.893244439602911083e-02
5.979812418299740306e-02
6.791416571281456982e-02
7.467373814063370252e-02
7.393750967188263135e-02
7.559954106273493457e-02
6.127099175179851615e-02
7.547185373519989249e-02
7.742566939015524397e-02
7.876145666763594011e-02
7.124945342753544186e-02
5.848733097065378361e-02
7.270004874840617359e-02
6.304036593728901128e-02
7.358022787956725042e-02
7.750767975750032235e-02
7.956401934117780794e-02
8.112389595033524248e-02
7.856566599278623497e-02
7.951523681181331404e-02
8.222518054587442393e-02
8.236995023999602039e-02
8.085873723177811057e-02
7.395784051246925839e-02
8.785223629458538408e-02
6.645469570263709547e-02
5.520277393145504169e-02
5.648802643872930657e-02
8.313684430534655501e-02
8.256601787296406758e-02
8.250914382020907434e-02
8.172849567554692218e-02
8.064385024969272786e-02
8.434226719859877486e-02
8.454065532041997455e-02
9.009511079391285815e-02
1.032940369008624043e-01
7.872636789449434513e-02
9.694887333183177525e-02
6.261187523025135704e-02
3.327804088890007339e-02
8.421362300508626608e-02
8.353796464527367405e-02
8.854073862513837934e-02
9.801785810816263100e-02
1.108694887517753525e-01
1.268815211263868981e-01
1.174746572461145000e-01
8.693693427130369522e-02
1.201960604125533044e-01
5.835304623886692493e-02
8.752960255718360283e-02
1.053123158239216012e-01
9.464675177638486037e-02
1.514069263106411767e-01
1.373445835202195264e-01
1.202931843172480170e-01
1.145174056802853307e-01
1.537621661215364255e-01
1.798209293361101857e-01
1.071328422798262237e-01
1.776649482418015125e-01
1.580949779164324276e-01
1.307041176477688194e-01
8.894897354850198057e-02
2.651680381110410045e-01
3.039898654619517804e-01
1.315970639078437310e-01
3.414191020795495635e-02
2.286267876208185681e-02
1.466858139162679209e-01
2.035812834453620823e-01
2.016168698774100376e-01
1.393585779794590529e-01
1.433666671407232696e-01
2.822684299298498095e-02
1.625406477719265955e-02
1.238203486072877724e-01
1.261185429846083950e-01
9.204411911158873194e-02
8.568283688201225323e-02
6.733157912550524760e-02
4.123563655675412803e-02
5.346447770827952167e-02
1.211716369130961951e-01
1.189402306848837132e-01
1.097974379903543657e-01
3.825384557761075943e-02
9.694858148022693356e-02
7.147674094611938811e-02
5.445741051792928750e-02
1.018030133937645187e-01
1.019744548452246741e-01
9.899965008075865824e-02
5.737693745243254567e-02
8.513718841806949822e-02
7.064515965772363848e-02
9.123186848431727447e-02
9.238030833353939875e-02
9.072408410646076726e-02
7.270479877187853435e-02
8.183801745383777193e-02
8.731967014812599959e-02
8.658678367591882141e-02
8.568851470107918811e-02
8.097911368961613343e-02
8.352331348440188152e-02
8.313522179651401667e-02
8.227303329442239854e-02
8.209959070944464199e-02
8.168886246006430707e-02
8.031328840615024889e-02
7.975858086332029973e-02
7.910541529786098425e-02
7.698086905598676422e-02
8.071086288723210156e-02
6.985638945779976128e-02
7.267075179888923819e-02
7.172176729775264770e-02
7.027413318671311970e-02
6.916946592620235035e-02
7.244124553032064984e-02
6.621587699528341808e-02
6.432387619896634545e-02
6.039526731955850714e-02
6.167428694233916681e-02
6.558396279842099164e-02
5.330258462239632206e-02
5.681131202080733078e-02
6.097886125912659744e-02
6.639986926515260846e-02
6.697231893722289942e-02
4.478436735857069251e-02
6.899346642815240571e-02
6.447571912849944797e-02
4.826593464043562459e-02
5.320537943377403461e-02
5.971565642975511928e-02
8.384158165631361292e-02
8.011554464193600122e-02
7.563795606897316670e-02
7.275828722264669757e-02
7.070763690046844019e-02
9.036343477204893115e-02
1.062042618954234935e-01
4.645179198676821497e-02
5.308078541434054637e-02
6.055931689448406513e-02
9.136594716514100101e-02
8.270162654191966223e-02
8.059002026168274324e-02
7.743472937345390050e-02
7.773287203472044327e-02
8.023947110412515960e-02
8.009239223302586086e-02
1.068605083264949629e-01
1.303044916802426623e-01
1.036318271297794052e-01
1.201371233627385737e-01
1.308110287015033790e-01
1.039670264021748114e-01
1.034086346502136183e-01
1.506688881232901567e-01
1.366093262746484460e-01
1.576170520221811810e-01
1.272775822882351027e-01
1.701998673744853918e-01
5.676278098554553286e-02
8.540914403390206799e-02
5.635017584301852539e-02
6.469137817253599321e-02
6.075754188984269777e-02
6.317250425957168791e-02
6.494512438110333630e-02
7.094400439292683491e-02
6.767380361896431495e-02
6.988893994952530275e-02
4.797676231197009478e-02
8.871058418008308244e-02
8.246235856972036760e-02
8.072685258328723967e-02
8.014928933177838111e-02
8.227633129283073998e-02
9.782970097126503228e-02
9.543812467706687397e-02
9.930462766729412916e-02
7.959071997526039055e-02
7.880977387232593334e-02
7.075862073967509325e-02
7.835950077569078798e-02
2.378305286959177256e-01
2.602146424250449952e-01
5.264687886444133214e-02
5.922787228327831832e-02
6.854857913454218132e-02
8.635478858227516041e-02
8.183084132577568559e-02
9.198315194323883337e-02
7.472073057879952129e-02
7.701256127510401617e-02
7.758104511342371612e-02
7.918379848645704100e-02
6.786437894042857133e-02
8.511120559663457041e-02
8.058219909393019020e-02
7.663115722463073598e-02
2.516876744582203021e-02
3.972380298184446240e-02
2.183055604634947730e-02
1.906254765350970382e-02
1.103000371842235636e-02
3.009553678697513349e-02
3.353390153132055490e-02
3.600239607562397137e-02
3.872910398185624298e-02
2.443850799784585623e-02
5.247091511654415619e-03
1.595780445150554727e-02
4.521423615485035269e-02
5.389499077560611084e-02
3.201333887984306875e-02
3.931930647737657408e-02
2.594947912763983372e-02
1.786591012857429231e-02
6.098736862968247296e-02
1.356577381662006920e-01
8.705330720842842374e-02
7.255572302631770054e-02
4.790810009042906908e-02
3.746877780468185759e-02
2.967541704843199707e-02
6.688328561771539338e-02
6.618376105008938470e-02
5.929160143819146161e-02
4.919123083283420683e-02
4.175837975541228653e-02
6.018297068176947651e-02
6.046120513617522091e-02
5.637501666238677045e-02
5.150738075058998444e-02
5.811563861556026667e-02
6.061397215138470546e-02
5.589116725064875724e-02
5.730005724875712747e-02
5.203297594006570104e-02
5.648775821504799927e-02
5.522504151759179136e-02
5.487735398397671632e-02
5.563720466644103690e-02
5.742565945086395424e-02
4.977047678166261063e-02
5.321187309936598747e-02
1.252117272064486586e-01
2.024123970803860251e-01
9.843915206401845919e-02
5.899882309068712333e-02
5.240917396423491748e-02
5.519688691507397549e-02
5.130910114627555002e-02
1.027677379746037845e-01
1.035039065445138712e-01
1.003637292738718961e-01
7.498932114928377746e-02
8.298305440340968120e-02
2.864969235621232443e-02
7.581239384377887192e-02
4.527487765398323372e-02
6.681030930048123539e-02
5.097990426171557232e-02
5.424226908548701598e-02
4.744826779448096943e-02
7.088542506993181225e-02
9.093855530154611178e-02
8.100889369265673601e-02
7.440509969484897235e-02
5.511757163708128071e-02
5.643005796425199644e-02
5.748799884690400375e-02
5.675959315904056945e-02
6.011448144594040005e-02
6.069552084179397761e-02
5.631826421085746326e-02
5.813563337320303004e-02
5.792829543233189021e-02
4.996630710969683642e-02
5.393178628260184015e-02
4.994227980322000354e-02
5.425890337899356985e-02
5.279698398596103376e-02
5.523033732322506217e-02
5.246310939773538018e-02
5.101530687183401802e-02
5.150015932351693915e-02
4.614129111465072736e-02
6.769561836969542612e-02
7.585141701431638572e-02
8.364876130243571739e-02
5.719756916952121323e-02
5.470389901102110791e-02
6.075590758785469336e-02
5.716401645284618915e-02
4.974464837637788961e-02
4.547450467676891067e-02
4.615165040425883020e-02
4.745944353182695447e-02
6.511450973319576896e-02
5.564015791346069162e-02
5.514725396157266896e-02
1.955061637520010831e-01
1.597501188131177363e-01
1.450485458447797193e-01
7.465711470830625751e-02
8.020982119497785390e-02
8.928125925359363391e-02
1.035647753269078042e-01
1.253996272817525237e-01
2.151701418125383292e+00
2.061420982697036219e+00
2.145898416031183142e+00
2.099702407894726175e+00
2.023887815877031482e+00
1.987392489043634081e+00
1.881612354970963130e+00
1.854758438888665095e+00
1.538274817655117310e+00
1.297937391968753573e+00
1.029653362162727959e+00
1.646051484455675284e+00
1.738322425427086593e+00
1.603562710536544866e+00
1.476932883488957238e+00
1.838309862221169988e+00
8.012533692447467715e-01
8.490610348928714357e-01
1.087196879723230092e+00
1.437459728421886851e+00
9.692293675963045141e-01
8.459136650057365037e-01
8.485702823591104726e-01
1.746780849361040611e+00
1.856104052187911080e+00
2.069753823805223103e+00
2.117323694571148440e+00
1.977456219174287488e+00
1.905263990036883293e+00
1.349063160337512501e+00
1.252048725624011150e+00
1.058576655285474732e+00
9.842849548846952512e-01
8.801810810375393368e-01
8.569818609225647865e-01
8.066145271519671311e-01
2.139934271951396294e+00
2.096094758434890348e+00
1.863281038158173475e+00
1.683298051196012057e+00
7.657279920860796674e-01
6.633736279079379683e-01
7.214440078831065861e-01
7.787324472402580300e-01
7.698366896260586678e-01
8.266745578145083817e-01
1.861870328878433734e+00
1.579131366059574049e+00
1.394465056560545202e+00
1.284828360501866218e+00
1.017633406331262869e+00
1.382655044117476972e+00
9.712119905397820219e-01
2.129613289601602677e+00
2.073058198802000263e+00
2.071883217980864611e+00
2.012234692710941797e+00
1.972357313563043890e+00
1.930201794729763387e+00
1.853067458685454971e+00
1.763773101031786528e+00
1.843513794143342821e+00
1.845525727286131845e+00
1.771374773998827701e+00
1.512222643471270445e+00
1.325835155853430702e+00
1.641519136609515872e+00
1.525654476072153098e+00
1.114123018440678292e+00
1.050147592677970643e+00
8.633642600050064342e-01
8.913658225359074594e-01
9.204383501707427140e-01
8.694559591956927402e-01
9.505574536359565618e-01
1.892470803846258764e+00
1.599886744312136067e+00
1.860562160216614691e+00
1.886831037095556107e+00
1.023433425215535930e+00
9.166552326740929901e-01
9.380438942382143264e-01
8.983378272452033908e-01
1.110891456448404035e+00
1.206520953545151986e+00
1.898783432691182327e+00
1.950115509897172528e+00
7.944092594351114256e-01
7.948150626972361188e-01
7.616959945374167651e-01
7.249373863744795754e-01
7.490859918377915649e-01
7.940473838780676141e-01
8.190357902243615706e-01
1.663417835250106558e+00
1.502139941954935276e+00
2.032666444910258274e+00
2.062426293598230931e+00
1.341376417455529158e+00
1.191462901390553997e+00
7.794267850378526763e-01
7.535121993277331676e-01
8.448044209782910041e-01
8.709936296634854802e-01
9.714241545182382698e-01
1.007256645620732360e+00
6.923815178521864899e-01
6.618474070148175903e-01
6.206516500993278784e-01
4.919523395982833280e-01
1.987523590912660287e+00
2.076642667942972142e+00
1.854117280387433286e+00
4.860694007845481335e-01
5.570574749881077592e-01
4.803488732509512138e-01
4.347321664643480355e-01
4.677393634418242629e-01
1.674768302448516488e+00
1.577186902190653717e+00
2.098015096408258895e+00
2.038332200256813387e+00
1.953665344297454531e+00
2.132032609157585412e+00
3.916062793616352788e-01
4.414840179894487515e-01
3.635854972264148666e-01
4.471831868208209770e-01
1.445107115949842980e+00
1.236646303408170278e+00
4.135339584945904590e-01
7.036485532303140555e-01
4.901688854000908480e-01
1.756467724745115477e+00
1.625955969410448398e+00
2.968348317214691834e-01
1.108281680297036553e+00
1.325514076243140327e+00
1.241160794880475704e+00
8.762214771439000849e-01
1.019402154153084217e+00
6.067706718782961417e-01
6.741667820476094919e-01
6.127883376321930919e-01
7.406963908229089455e-01
6.100307472994027647e-01
5.451910003264086590e-01
1.733549279091008422e-01
2.615674892771800361e-02
2.276394444686890561e-01
5.709619253707611808e-01
7.182311914879100367e-01
7.285474857985240194e-01
9.553781258618135874e-01
2.711025259055660497e-01
3.096573025114678357e-01
1.147327139111399719e+00
1.497317364965167208e+00
2.586787394692754427e-01
1.969790856613147234e-01
1.756677187477872160e+00
1.796344763366627406e+00
1.452606570030254840e-01
1.660106885899182913e-02
1.875132453596622506e+00
1.946759496768707631e+00
1.994694995549188832e+00
2.102901493260822985e+00
2.148566155954613865e+00
2.115470873457183654e+00
1.868278018410502339e+00
1.746216882314725272e+00
1.447918408478194197e+00
1.348784787487734782e+00
1.140782237012757605e+00
1.056818890729597449e+00
7.714569778011162171e-01
9.334911904236768976e-01
6.910026018969822603e-01
7.154307036948727161e-01
6.539990826188655237e-01
7.286372868967910810e-01
7.056615018316614307e-01
8.793122466756579936e-01
9.498063428758247717e-01
1.224582307262973346e+00
1.652405309678424139e+00
1.626684356688810285e+00
1.856610627071552999e+00
1.905550579876578388e+00
2.066166123455460024e+00
2.116217991760248829e+00
2.187793907017579809e+00
2.152002062985103770e+00
1.983893723583909363e+00
1.890806426064586931e+00
1.616461977455403654e+00
1.522280451489455455e+00
1.297229026511612426e+00
1.236662261552625708e+00
1.079282204584578242e+00
9.915373585638264098e-01
8.940842776873824116e-01
8.448494640455653792e-01
9.006661370451870541e-01
8.075220294668798982e-01
9.376674992728972757e-01
7.850614595264399087e-01
8.294139521815826477e-01
1.029569072620884818e+00
1.212548710267354446e+00
1.269188968024794528e+00
1.627112634299370697e+00
9.772168751693350863e-01
7.818838808870745005e-01
1.063380027939854866e+00
1.378019841136495005e+00
2.060433607181159310e+00
1.666895340194955999e+00
1.691953819192430375e+00
1.741632507478139136e+00
2.160945838094687765e+00
2.157608024831670246e+00
2.066890852142605262e+00
1.974518143273303439e+00
1.895227333970051165e+00
2.049246329715486592e+00
1.030586773188928662e+00
9.716217704766707541e-01
7.694292835334334280e-01
2.142753484081373117e+00
1.838779706050311935e+00
1.638546742557911218e+00
2.197061967397288207e+00
2.071236664920546033e+00
1.958415171696385348e+00
7.508139915526608199e-01
5.153020800088391473e-01
6.443039380291093465e-01
4.257670401637534963e-01
5.389974074308558905e-01
1.439159965741297897e+00
1.982374795798314215e+00
1.386000968329258010e+00
6.913148672979049225e-01
1.759491485258486865e+00
1.335464134320552221e+00
2.174414603849747774e-01
3.699781268034361692e-01
4.584160992501035148e-01
5.443356092729159101e-01
1.173381767481846749e+00
8.791109175119854457e-01
7.175285112167149038e-01
2.189941987457853845e+00
2.048878759847980735e+00
1.945389030965177346e+00
1.114696129737892782e+00
1.179663259845592949e+00
8.785353903061221548e-01
7.503301390158761963e-01
5.939238184513684349e-01
6.228771078497074010e-01
5.646968605508186911e-01
1.260643960993093948e+00
1.067558844039026456e+00
2.040093640702087985e+00
1.616044245786324440e+00
1.408991439232031295e+00
1.402353644810789612e+00
2.633503213078104976e-01
4.204329234074545840e-01
8.208489660483936357e-01
4.992378037428000792e-01
6.169175787172400671e-01
7.379541488747197731e-01
4.991910399637236040e-01
9.280843231117920089e-01
6.112327255848181151e-01
9.510960236178959137e-01
7.890131058008094111e-01
6.875776638083569425e-01
5.788884697520249034e-01
4.540819874134185974e-01
5.073814588474580001e-01
1.015394742713445764e+00
8.985042355796897251e-01
1.119714501751357227e+00
8.658261826853796972e-01
2.069806839383446118e+00
1.988068973386782901e+00
2.069323204011927153e+00
1.752944662655387287e+00
1.646812792952389248e+00
1.236889775889016274e+00
2.073589151456029622e+00
1.669154085868804982e+00
1.575214460481809686e+00
1.447598675253516154e+00
1.300159835783994300e+00
1.204342169382814909e+00
1.177786806101472461e+00
8.035049044257975837e-01
3.943100556806182766e-01
4.845621647145198496e-01
7.825760118688043221e-01
5.815941577763852344e-01
6.759184417558924407e-01
5.481563852114722524e-01
2.367983252712893560e-01
6.817101645517923414e-01
7.799125033346511193e-01
5.951954088387994002e-01
6.085890191903889912e-01
5.027593152692292344e-01
3.768141477725726052e-01
8.481478351743003685e-01
7.506231656152682064e-01
6.232603546780890458e-01
6.487295588936625723e-01
9.060166744915129078e-01
5.027772331126847405e-01
6.103541672621446423e-01
2.163545160037164905e+00
2.054481168269809199e+00
1.973474214182922903e+00
1.860221861924706399e+00
1.844284319461765520e+00
1.127686760692719004e+00
9.318603631283344235e-01
6.155849002908080347e-01
1.517525918964621967e+00
1.356486867140285879e+00
1.378032504982088069e+00
1.135969809217819204e+00
1.045285333300650210e+00
9.684944210544288445e-01
7.336201413645713210e-01
8.365502057614525588e-01
6.444207503950650784e-01
5.623697983400107736e-01
4.895630539125205294e-01
5.403290101847509908e-01
7.318081519738665053e-01
6.243841875950943976e-01
5.755761359373970931e-01
2.448706751701016093e-01
6.578042409666268187e-01
5.783145962061644330e-01
5.260607640016600195e-01
4.228694398335677840e-01
7.228610261971194495e-01
6.486056751402370368e-01
3.044760559477591166e-01
4.655303575001841221e-01
1.874017060920095012e+00
4.017457875429263914e-01
7.186039870743523572e-01
5.345248964700576311e-01
4.018539392962418577e-01
8.318544533858074352e-01
1.243065690130922940e+00
9.326467396412310151e-01
1.061323447809336074e+00
1.929775216805500460e+00
1.089913968555120460e+00
9.725202452346358717e-01
8.673966780176588509e-01
8.187921798643957860e-01
7.217113734090360166e-01
6.259443795858048443e-01
5.613383597814592951e-01
5.432518945851406711e-01
5.695503756864218614e-01
6.607747871069727941e-01
6.096322267859533017e-01
4.028479174619150616e-01
5.747559832648522216e-01
5.235751673252900806e-01
4.647435620443242099e-01
6.185705709406930097e-01
5.711039851861973160e-01
4.097234352382401745e-01
5.172581081092739730e-01
2.765262476760194654e-01
1.442954514235589569e-01
6.605323797347665282e-01
5.795921250156774729e-01
4.785097788760157012e-01
3.745201493354404776e-01
6.661020834880626573e-01
7.365609996018881445e-01
7.670496609663867149e-01
9.678370366958002347e-01
8.479063904942988339e-01
1.540422042447392226e+00
9.084699693094744344e-01
8.158127139140433082e-01
7.254330828447133062e-01
6.373950618353924069e-01
5.709360419049747115e-01
5.700562875347315872e-01
5.813389384574642049e-01
6.304425002894334940e-01
5.920460057507037632e-01
4.658156693459654107e-01
5.307219018594161453e-01
4.961183440130602085e-01
5.573935053090016689e-01
5.308055121677123234e-01
5.257355519890227757e-01
5.709516874641554773e-01
3.266429625200006903e-01
2.708594105539682273e-01
2.649218777086589371e-01
5.509248292756109278e-01
4.281844786586748164e-01
3.685773964276216619e-01
6.177783889772555659e-01
6.703076688124000038e-01
7.605491286348461388e-01
1.264990354331099853e+00
7.670087399993449351e-01
6.963766193064201415e-01
6.130392581083593528e-01
5.789280497478968002e-01
5.949087583017496073e-01
5.788491504079482652e-01
4.956080769206406833e-01
5.090011709213269064e-01
5.231702591209878017e-01
5.103061075376614797e-01
5.729468748422343882e-01
5.846714042748371032e-01
3.282847044370043599e-01
3.131674571811896568e-01
3.197599242066693215e-01
4.560611882717309218e-01
3.731616680223812654e-01
5.222517493506888542e-01
5.865384242688773675e-01
7.077872032614422881e-01
7.917799914999303912e-01
9.299739328175652409e-01
6.638430372481998187e-01
6.260062539793916914e-01
5.990116566080577742e-01
5.690058294857962551e-01
5.601585050634784180e-01
5.619750130642405805e-01
5.017882314678864253e-01
4.998189329761575928e-01
5.021799166257792102e-01
4.968774667429485259e-01
5.829172128768936867e-01
5.842572789393678523e-01
3.519140954308991875e-01
3.450256857533186006e-01
3.423179874420493318e-01
4.007963934967354591e-01
4.499179143704872263e-01
5.951627617628494349e-01
6.031606714546167147e-01
6.079155326615227617e-01
5.641577766528473870e-01
5.834458341013628591e-01
5.870851642952068516e-01
6.523177663937944626e-01
6.109406117086231269e-01
6.803346555281167829e-01
6.907805468428920292e-01
6.081640253141101793e-01
5.942742358707879813e-01
5.321171413239652592e-01
5.233542418743770686e-01
5.435821037477872597e-01
5.947133843100476103e-01
6.172224662971106390e-01
5.347897517073247897e-01
6.227230458442711836e-01
6.222292545941386921e-01
5.507945598549260913e-01
6.081595910990046372e-01
5.666102440094763493e-01
6.185484741670285169e-01
5.727483592429021275e-01
6.048622457931012164e-01
5.747769790456126460e-01
5.828566003720321298e-01
6.148731866559576931e-01
4.942052914853944934e-01
4.872181739565451530e-01
4.848400059302428455e-01
5.756422444575163277e-01
5.742519800537166930e-01
3.759589829386775772e-01
3.531691709331293838e-01
3.548511554987170413e-01
3.753609123830907168e-01
5.877383994420937174e-01
5.940604751900120384e-01
5.790663309580795781e-01
6.124649886764010898e-01
6.336054647137669971e-01
3.554794285021326550e-01
3.594918987085729545e-01
5.741352909668570037e-01
5.598350447070514768e-01
5.022593340188941102e-01
4.835306188799823879e-01
5.080109514795663195e-01
2.097672507560401467e+00
1.856068241460863133e+00
5.837007135322272999e-01
6.147462855440206653e-01
6.127600390433173283e-01
5.730372255818031446e-01
6.119209583178790712e-01
5.669770030397099925e-01
5.750780583758310360e-01
6.121166529803727663e-01
4.719344646695699530e-01
5.321465732297802065e-01
5.202615001704254949e-01
5.643931749409087928e-01
5.354487397432070583e-01
5.514283789016936055e-01
4.787564344066774780e-01
4.697814433391672151e-01
4.662958126303426987e-01
5.596562947775703956e-01
5.465599510909645575e-01
3.485798311673581895e-01
3.330844463267665367e-01
5.756360347085759388e-01
5.608385237386883659e-01
5.591696781526870330e-01
3.544591535037661667e-01