<?xml version="1.0" encoding="UTF-8"?>
<VTKFile type="UnstructuredGrid" version="0.1" byte_order="LittleEndian">
<UnstructuredGrid>
<Piece NumberOfPoints="504" NumberOfCells="911">
<PointData>
<DataArray type="Float64" Name="Temperature_@_t=00.0" Format="ascii">
1.498740533067181673e+02
2.720976494594493147e+02
1.498740533067199294e+02
1.498740533067193610e+02
2.723706723748977083e+02
1.498740533067194178e+02
2.705422190296696385e+02
8.492863020714091249e+01
2.721789716657532949e+02
1.498740533067194178e+02
1.498740533067194178e+02
2.730871687573842905e+02
1.498740533067194178e+02
2.720745466708474396e+02
1.498740533067194178e+02
2.719059484071619295e+02
1.998320710756262386e+01
1.498740533067194178e+02
2.718829126528182769e+02
1.498740533067194178e+02
2.718081657054491416e+02
2.729143460466650026e+02
1.998320710756262386e+01
1.498740533067194178e+02
2.716372619175561454e+02
1.498740533067194178e+02
2.717216582884499871e+02
2.742951786426561398e+02
1.998320710756262386e+01
1.498740533067194178e+02
2.712305657830836481e+02
1.748530621911732794e+02
2.735264243269990629e+02
1.998320710756262386e+01
1.998320710756257199e+02
2.734394922509395656e+02
1.998320710756262386e+01
2.734285879866496884e+02
1.998320710756257199e+02
2.731592774394551952e+02
1.998320710756262386e+01
2.721899212705525883e+02
1.998320710756295000e+02
2.734911558266323368e+02
1.998320710756262386e+01
1.998320710756257199e+02
2.711811461692566922e+02
2.736700662706157345e+02
1.998320710756262386e+01
2.711048330721312709e+02
1.099076390915937793e+02
2.740958441428475680e+02
1.998320710756262386e+01
1.998320710756262386e+01
2.732162651143424910e+02
1.998320710756262386e+01
2.756724887476516983e+02
1.998320710756262386e+01
2.756939414141032785e+02
1.998320710756262386e+01
1.998320710756262386e+01
2.749507344961629656e+02
2.764015046866734906e+02
2.742359350248586907e+02
1.998320710756262386e+01
1.998320710756262386e+01
2.750530818163621234e+02
2.755273302371689965e+02
1.998320710756262386e+01
2.754509535796976252e+02
1.998320710756262386e+01
2.762047961406214540e+02
2.767682976475152259e+02
2.753041894561798699e+02
1.998320710756262386e+01
2.690405630028848236e+02
1.998320710756262386e+01
1.998320710756262386e+01
2.698625548482783074e+02
1.998320710756262386e+01
1.998320710756262386e+01
2.745625975206773433e+02
1.998320710756262386e+01
2.732503229427817359e+02
2.738894956620627568e+02
1.998320710756262386e+01
2.744722487294064877e+02
2.707092229282941958e+02
1.998320710756262386e+01
2.738042354715162219e+02
1.998320710756262386e+01
2.740216597551641371e+02
2.734511975108694628e+02
2.742587192611947557e+02
1.998320710756262386e+01
2.736353799536390738e+02
1.998320710756262386e+01
1.998320710756262386e+01
2.717879557246556033e+02
2.754385558199857087e+02
2.705417324890450459e+02
1.998320710756262386e+01
2.748139216307513948e+02
2.755480955185807943e+02
1.998320710756262386e+01
2.706705057631886575e+02
2.762192267155239165e+02
2.759717175080161269e+02
1.998320710756262386e+01
2.705977979724434022e+02
2.755307771790733113e+02
2.759830817921535981e+02
2.704278374921613022e+02
1.998320710756262386e+01
1.998320710756262386e+01
1.998320710756262386e+01
2.710320324352267107e+02
1.998320710756262386e+01
2.763429590692781517e+02
2.739918479935966502e+02
2.746082137843111468e+02
1.998320710756262386e+01
2.708662320250480207e+02
1.998320710756262386e+01
2.705526425334743408e+02
2.702140846118928152e+02
1.998320710756246399e+01
2.768926455013726695e+02
2.752277462549175766e+02
2.732079572234196121e+02
2.732286138045450912e+02
2.700263380903741108e+02
1.998320710756262386e+01
1.998320710756262386e+01
2.707045305734188787e+02
2.739469858247492766e+02
2.701003390000912532e+02
1.998320710756262386e+01
1.998320710756262386e+01
2.710908020019364244e+02
2.705341023704533541e+02
1.998320710756262386e+01
1.998320710756262386e+01
2.701501991364602873e+02
1.998320710756262386e+01
2.705966262589815301e+02
1.998320710756262386e+01
2.703095609206721974e+02
1.998320710756262386e+01
2.710376115353117257e+02
2.702137091794766661e+02
1.998320710756262386e+01
1.998320710756262386e+01
2.711834562100071366e+02
2.702080878118496230e+02
1.998320710756262386e+01
2.704501582838532840e+02
1.998320710756262386e+01
1.998320710756262386e+01
2.703184693866302268e+02
1.998320710756262386e+01
2.708244286606725950e+02
1.998320710756262386e+01
2.704166808867130385e+02
2.702235392759458250e+02
1.998320710756262386e+01
2.703730156763935497e+02
1.998320710756246399e+01
1.998320710756246399e+01
2.708100547372631581e+02
2.704087175070954459e+02
1.998320710756262386e+01
2.702933365495367184e+02
1.998320710756262386e+01
2.704583117201096911e+02
1.998320710756262386e+01
1.998320710756262386e+01
2.707869317175628225e+02
1.998320710756262386e+01
2.705400120734724396e+02
2.700922024518697526e+02
2.731129742071938153e+02
2.746701992997003572e+02
2.761318711163658008e+02
2.740794511385893202e+02
2.758473685270926694e+02
2.737410453970841786e+02
2.731844268559697184e+02
2.755225904608535075e+02
2.766099393566900631e+02
2.752484715276283964e+02
2.742417409850976355e+02
2.733672046447452999e+02
2.730667135793488569e+02
2.756557376633171543e+02
2.743369275745960181e+02
2.738493162757904997e+02
2.741591623347690643e+02
2.734292897379058900e+02
2.726115634207093876e+02
2.745065299006042210e+02
2.725776691765353803e+02
2.719088212682515859e+02
2.729260968202277127e+02
2.738080511255583360e+02
2.713255803429227626e+02
2.701147600560690876e+02
2.710117486116715781e+02
2.734792026923406070e+02
2.707376295315307289e+02
2.691577416856223408e+02
2.699073603679538564e+02
2.734980358759332830e+02
2.706182460874701974e+02
2.686578781736089354e+02
2.699454717229034486e+02
2.737689021227288890e+02
2.709367345881423716e+02
2.683126146468230218e+02
2.694007753132243579e+02
2.711472902556850499e+02
2.741740326892592066e+02
2.709808414587497509e+02
2.682872559335874598e+02
2.686053007982103509e+02
2.712911957557253686e+02
2.744452568079779553e+02
2.713003014192561295e+02
2.686480275750282658e+02
2.682256119380730865e+02
2.699123558583273734e+02
2.727638390447555707e+02
2.751070222616230581e+02
2.767524971427288847e+02
2.761522210702238453e+02
2.746097731923439369e+02
2.715918264691836725e+02
2.692537023618925218e+02
2.687082991701844890e+02
2.694289051826971217e+02
2.709963977367270900e+02
2.731199984683069033e+02
2.758727777312784610e+02
2.767500971716431195e+02
2.768299858773685287e+02
2.759658340793511115e+02
2.745622839962150010e+02
2.735653547650406949e+02
2.733577598483193469e+02
2.744206311599515402e+02
2.715353675521830610e+02
2.696812381314422282e+02
2.694231668083186264e+02
2.700251293606822856e+02
2.708959988363525326e+02
2.719026925206587748e+02
2.731121302722698374e+02
2.743937266296808843e+02
2.747468661331497515e+02
2.736770235763632400e+02
2.733326909709719530e+02
2.736786831639091702e+02
2.738487253004465174e+02
2.748003463887259841e+02
2.774318037601503306e+02
2.771708563060933557e+02
2.711567762403623760e+02
2.696879769743642896e+02
2.698675829874583201e+02
2.707596394931862278e+02
2.716494288261916381e+02
2.722937984650799308e+02
2.734624032701893839e+02
2.727234220812399599e+02
2.730856681512274236e+02
2.733567018231777865e+02
2.736195960916204513e+02
2.742043289975293305e+02
2.750658487562049004e+02
2.748332008315132953e+02
2.757834414106823147e+02
2.746401050251778884e+02
2.730831294302174683e+02
2.703850887052703911e+02
2.748999419729826741e+02
2.754425046497540848e+02
2.764558065265101732e+02
2.740353474211077582e+02
2.772501474983657772e+02
2.784587637985695778e+02
2.692362932272343414e+02
2.697875202722426025e+02
2.710922346335019029e+02
2.723036832061424093e+02
2.731204245113218576e+02
2.735177739434260502e+02
2.734523051149228650e+02
2.735947259429156588e+02
2.741316177965821907e+02
2.748502554668099833e+02
2.754870374257425851e+02
2.760025199960314808e+02
2.762245736957286795e+02
2.723332399710385516e+02
2.697858328248053112e+02
2.686067098832437523e+02
2.728274885955768241e+02
2.745349489683757156e+02
2.740342835639573877e+02
2.731348719897880528e+02
2.770023280276985815e+02
2.766384341427987010e+02
2.689067709527575971e+02
2.698760581121703694e+02
2.709693102391652815e+02
2.724031554768941987e+02
2.735712204809972263e+02
2.742973678600812946e+02
2.745963564411683819e+02
2.745409207005860139e+02
2.753461287276471126e+02
2.758788636082179551e+02
2.761663252056731608e+02
2.761867360605406816e+02
2.759420929642545843e+02
2.695706455328830771e+02
2.681374203717025466e+02
2.681882602979189301e+02
2.713416585088284592e+02
2.736012830016265411e+02
2.730817871817295668e+02
2.752733372026299321e+02
2.757224464945610407e+02
2.691531357930167019e+02
2.704625306268040390e+02
2.719241702160991281e+02
2.733444423285309313e+02
2.744660824326839474e+02
2.751619880369320867e+02
2.754815285887132177e+02
2.759555485120241656e+02
2.760942344273084927e+02
2.759497874663458106e+02
2.755717781256190619e+02
2.751072447414275643e+02
2.694596128222184461e+02
2.682784510860360569e+02
2.678976920997604338e+02
2.684974248995961261e+02
2.711693697446462465e+02
2.736066444072059767e+02
2.742200760660747960e+02
2.752262352457177030e+02
2.730113419588133183e+02
2.696639099041298095e+02
2.710957391067005346e+02
2.750026748416904070e+02
2.725598356595310179e+02
2.739138639476170738e+02
2.755840976235407425e+02
2.752288854227345496e+02
2.756980153576592443e+02
2.754535286199894699e+02
2.737957847076301050e+02
2.749878257357769940e+02
2.744152508807984532e+02
2.693595034879732566e+02
2.684533188769525509e+02
2.684560872727597598e+02
2.691438949831336913e+02
2.716418916187562331e+02
2.740907781812304052e+02
2.748913860067983705e+02
2.744599669443296648e+02
2.724294178397133237e+02
2.702852347931734016e+02
2.716021652878198438e+02
2.748213299490393524e+02
2.740279979684979139e+02
2.729015799741423507e+02
2.749426366601355198e+02
2.737921002336069023e+02
2.766993392648055874e+02
2.760541931818810326e+02
2.737348448908589376e+02
2.747430488340654620e+02
2.742942833395266007e+02
2.731819264603636270e+02
2.733461615701866663e+02
2.737731716338503816e+02
2.701558807156363855e+02
2.694100321528406425e+02
2.693513198410500991e+02
2.698298707162845744e+02
2.727081957905948002e+02
2.746574263466700359e+02
2.749295156399109601e+02
2.732888976010781334e+02
2.707551226405043394e+02
2.719154092416747517e+02
2.740185667465161146e+02
2.730105705998634562e+02
2.738828783199608665e+02
2.755483803714117244e+02
2.767754126477309455e+02
2.752606485835976287e+02
2.741047348386068734e+02
2.735475983574822862e+02
2.732276063731112572e+02
2.733343342451604485e+02
2.731066197348814626e+02
2.714628570755021997e+02
2.706668186892190420e+02
2.703820199943590978e+02
2.705167590274910481e+02
2.710148560341797292e+02
2.740978555922432633e+02
2.750596914496620684e+02
2.744966724861416765e+02
2.726269688573230496e+02
2.714221283619322662e+02
2.721519605101202615e+02
2.729947035289434893e+02
2.728979256915675933e+02
2.742516159509302156e+02
2.767901270699705947e+02
2.760053954859570240e+02
2.748198739543897204e+02
2.728610873440832165e+02
2.731628034066346231e+02
2.738140001210695686e+02
2.728641588400564046e+02
2.720968383093925809e+02
2.716605175741058815e+02
2.716605447182017770e+02
2.717933299085258341e+02
2.747982523182824934e+02
2.750819118451025815e+02
2.732016198327626171e+02
2.719662435049039573e+02
2.723521826904956811e+02
2.726652980639277644e+02
2.730737501786960593e+02
2.737967482260241354e+02
2.762931127114854917e+02
2.766232416228882585e+02
2.756787421714439006e+02
2.736181135834147540e+02
2.745171261575088693e+02
2.726307491116225492e+02
2.742209151283956317e+02
2.735364814293874929e+02
2.730563453000571030e+02
2.728132083694562766e+02
2.754014037698664765e+02
2.746548441880625546e+02
2.725787970853994580e+02
2.727210025007137233e+02
2.734791622360460792e+02
2.742987522575066350e+02
2.749385761092287339e+02
2.768104675120255251e+02
2.763663122743925555e+02
2.753497016605975318e+02
2.735350838824616631e+02
2.734248647447781195e+02
2.738100682654929301e+02
2.752631416741240855e+02
2.747860517508772773e+02
2.743073205989077223e+02
2.754580942814061473e+02
2.734797350336712043e+02
2.740621494004614647e+02
2.751039150205035639e+02
2.760179782894010714e+02
2.764070940552387015e+02
2.766436749933699275e+02
2.744190734422120954e+02
2.746884486053853038e+02
2.753387851214794182e+02
2.758504533014240110e+02
2.757488284877770184e+02
2.749198417633736540e+02
2.726387378526430894e+02
2.757080385090379764e+02
2.764451415002417889e+02
2.766241199565631064e+02
2.760786036940973531e+02
2.732795644192917166e+02
2.761458547534058425e+02
2.762238884867929869e+02
2.756112515871220694e+02
2.730562259243790209e+02
2.764808520171661144e+02
2.761184105313975010e+02
2.749245991108254543e+02
2.750559933504547985e+02
2.757645353063813900e+02
2.732915920470401829e+02
2.749141521660347394e+02
2.734768056143659578e+02
2.736578290562011944e+02
2.729096544613908577e+02
2.725911844990099553e+02
</DataArray>
<DataArray type="Float64" Name="Temperature_@_t=00.33" Format="ascii">
1.501747422636391889e+02
1.640437009976259617e+02
1.501747422636383362e+02
1.501747422636375973e+02
1.751168132154391799e+02
1.501747422636379099e+02
1.363582149133736436e+02
8.509902061606227619e+01
1.852921154233034144e+02
1.501747422636379099e+02
1.501747422636379099e+02
1.885011836205378870e+02
1.501747422636379099e+02
1.894154918419110629e+02
1.501747422636379099e+02
1.901893151555432837e+02
2.002329896848526047e+01
1.501747422636379099e+02
1.914095890735960950e+02
1.501747422636379099e+02
1.905537695992436511e+02
1.294093038665332358e+02
2.002329896848526047e+01
1.501747422636379099e+02
1.879371508688897450e+02
1.501747422636379099e+02
1.924165333006593244e+02
1.713833127185046408e+02
2.002329896848526047e+01
1.501747422636379099e+02
1.893273679261254472e+02
1.752038659742453319e+02
1.719182014609411340e+02
2.002329896848526047e+01
2.002329896848521571e+02
1.790616263638780197e+02
2.002329896848526047e+01
2.374911242293437112e+02
2.002329896848521571e+02
1.702729854260890932e+02
2.002329896848526047e+01
2.498609214762116437e+02
2.002329896848551698e+02
1.747325239797350775e+02
2.002329896848526047e+01
2.002329896848521571e+02
2.553977179117236176e+02
1.717201720455668408e+02
2.002329896848526047e+01
2.370107541274702214e+02
1.101281443266690161e+02
1.754010480442535709e+02
2.002329896848526047e+01
2.002329896848526047e+01
2.011034680013827654e+02
2.002329896848526047e+01
1.769002619921473638e+02
2.002329896848526047e+01
1.777528744923831141e+02
2.002329896848526047e+01
2.002329896848526047e+01
1.630281469055280752e+02
1.954077786234954033e+02
1.736395914760846892e+02
2.002329896848526047e+01
2.002329896848526047e+01
1.825409718644779389e+02
1.758007123195018551e+02
2.002329896848526047e+01
1.711935552674827932e+02
2.002329896848526047e+01
1.876817296805152182e+02
2.379158810390944438e+02
2.620477533378925727e+02
2.002329896848526047e+01
6.714729502133039318e+01
2.002329896848526047e+01
2.002329896848526047e+01
7.405030122218620647e+01
2.002329896848526047e+01
2.002329896848526047e+01
1.812025493932062545e+02
2.002329896848526047e+01
2.753756015398682848e+02
2.723783211532345376e+02
2.002329896848526047e+01
1.835523137452270817e+02
8.499025345211698834e+01
2.002329896848526047e+01
1.163091161364301627e+02
2.002329896848526047e+01
2.710573773733245844e+02
2.738477903160255096e+02
1.839929952255760099e+02
2.002329896848526047e+01
1.656586498825962508e+02
2.002329896848526047e+01
2.002329896848526047e+01
1.019104350939267079e+02
1.838036304882271565e+02
8.681356294628629655e+01
2.002329896848526047e+01
2.676088191678341559e+02
2.646171295905551233e+02
2.002329896848526047e+01
9.632659097835349371e+01
2.619877048052162536e+02
2.629471018530389301e+02
2.002329896848526047e+01
9.912428050143068958e+01
2.646444093488529461e+02
2.628732807377646168e+02
9.867324818127988806e+01
2.002329896848526047e+01
2.002329896848526047e+01
2.002329896848526047e+01
1.018125952275958213e+02
2.002329896848526047e+01
1.958890434949860264e+02
2.710951607762758613e+02
2.683932199123157716e+02
2.002329896848526047e+01
1.126232409232312079e+02
2.002329896848526047e+01
9.779060533532498312e+01
8.913274686350379739e+01
2.002329896848501889e+01
2.249073296272375160e+02
2.620703207219806359e+02
2.753972513178508166e+02
2.749655850105190780e+02
9.365967173640416377e+01
2.002329896848526047e+01
2.002329896848526047e+01
1.003315613570874092e+02
2.718881366598919271e+02
9.923245152765986177e+01
2.002329896848526047e+01
2.002329896848526047e+01
1.063893761693962716e+02
9.506873268338702587e+01
2.002329896848526047e+01
2.002329896848526047e+01
9.930257588047761885e+01
2.002329896848526047e+01
9.772955934120142274e+01
2.002329896848526047e+01
1.020844540858441718e+02
2.002329896848526047e+01
1.045828623234297226e+02
9.902212210715578067e+01
2.002329896848526047e+01
2.002329896848526047e+01
1.076671621460922665e+02
9.795101806192752747e+01
2.002329896848526047e+01
9.249749515749618922e+01
2.002329896848526047e+01
2.002329896848526047e+01
9.906433993083135192e+01
2.002329896848526047e+01
1.033620918421333101e+02
2.002329896848526047e+01
9.990876830665109765e+01
8.887232914992496546e+01
2.002329896848526047e+01
9.765786472870442481e+01
2.002329896848501889e+01
2.002329896848501889e+01
1.037091682697203510e+02
9.807992329595910519e+01
2.002329896848526047e+01
9.132680466871158842e+01
2.002329896848526047e+01
9.779736938917034195e+01
2.002329896848526047e+01
2.002329896848526047e+01
1.042435051214829684e+02
2.002329896848526047e+01
1.003002910992186685e+02
8.640915173214641243e+01
1.445594452869939914e+02
1.844007150510903443e+02
1.884620608483948274e+02
2.087457515829536590e+02
2.131168653842134688e+02
2.159729431914882980e+02
2.116177555475597387e+02
1.797106253056522291e+02
2.315322668702391411e+02
2.410666407274425183e+02
2.365707969298946978e+02
2.166148524826775486e+02
2.111001437045906073e+02
2.394991483110059960e+02
2.637613350424209102e+02
2.628136407645292820e+02
2.430330457639626047e+02
2.197420150492972084e+02
2.135565636875486177e+02
2.411765703120676960e+02
2.736851090661444914e+02
2.786990850988322563e+02
2.663986711425458793e+02
2.413226804124669229e+02
2.778828854285008561e+02
2.861450580038788303e+02
2.766183150889740432e+02
2.439920688821386534e+02
2.792267398179714633e+02
2.888923765035841029e+02
2.815868635022015951e+02
2.455299814245063317e+02
2.790273861236858579e+02
2.900216511189950666e+02
2.739962051973249118e+02
2.456182182165356380e+02
2.769794410081847786e+02
2.915360906888595309e+02
2.805980766046149029e+02
2.417935687719837290e+02
2.447644070545738941e+02
2.777734781960599548e+02
2.914131941200745928e+02
2.884135617475331514e+02
2.656801552016899564e+02
2.463432048419159628e+02
2.771332680905475172e+02
2.895878340730067748e+02
2.905153913316164562e+02
2.830039073036968489e+02
2.656189981846532646e+02
2.423288927565648692e+02
2.396982916219300250e+02
2.519798234806523283e+02
2.469357372488637168e+02
2.764911016467030436e+02
2.870195507334106537e+02
2.880891680812998175e+02
2.853928504744584984e+02
2.801329561905670857e+02
2.711404474023416356e+02
2.494894847586380990e+02
2.394920820221323368e+02
2.384347838548404752e+02
2.555498230765041114e+02
2.685552105747097471e+02
2.742301905916413034e+02
1.079742085176279858e+02
2.495698726473721933e+02
2.772162359136945042e+02
2.852920722267364795e+02
2.849996285796955249e+02
2.823859232549918943e+02
2.799622390618791314e+02
2.776206397035578561e+02
2.739999349651711213e+02
2.684380722425339627e+02
2.671221509261446840e+02
2.736893269693312618e+02
2.748769563026205560e+02
2.727407228980697482e+02
2.548811152702845675e+02
1.275107615955408562e+02
1.595708638605401575e+02
1.746702495085067142e+02
2.789791699155157403e+02
2.852041994766827884e+02
2.831180906817332925e+02
2.792245528323846884e+02
2.763284226968578992e+02
2.750321228695104310e+02
2.741088642322843612e+02
2.748759215209438480e+02
2.748390369026315625e+02
2.744997867613242306e+02
2.730005358548409617e+02
2.702360259973146412e+02
2.665482372522391188e+02
2.675300432226351290e+02
2.636689866849198438e+02
2.290029766818334451e+02
2.620665344639627961e+02
2.825619571464868613e+02
2.359680814551966819e+02
2.447449501450227842e+02
1.590006395232178704e+02
1.352420913176895851e+02
2.301906309187325519e+02
2.051843417524008260e+02
2.869197659122938830e+02
2.832371667596394218e+02
2.778052485239321072e+02
2.735273460457041779e+02
2.712169638432770853e+02
2.707353567036289519e+02
2.731837932814768806e+02
2.715386372120544252e+02
2.702149800043023902e+02
2.672802710651872644e+02
2.647645071102856491e+02
2.627710007734218038e+02
2.619362002304907264e+02
2.700035765042348999e+02
2.856875477035867448e+02
2.896859237102347038e+02
2.703882694300095864e+02
2.627208873960865958e+02
1.477939795595581529e+02
1.411606714106212621e+02
1.980145669754652999e+02
2.434099360154548606e+02
2.870407784372946480e+02
2.825582193816198355e+02
2.782078072846662167e+02
2.730203512760304534e+02
2.692435092605351201e+02
2.672978104319199133e+02
2.669639667125450728e+02
2.679232896198979006e+02
2.649411829323524330e+02
2.630461982093838174e+02
2.620388163086589088e+02
2.620203887025721201e+02
2.629964249526141202e+02
2.881519396958748302e+02
2.923916988884357124e+02
2.904344500933828499e+02
2.816675548554500779e+02
2.683686530995479416e+02
1.451494224273986617e+02
1.874988114272110522e+02
2.397197631087037166e+02
2.856372332897894353e+02
2.802580925871570798e+02
2.748256831593829475e+02
2.699678742378365541e+02
2.664511707959943010e+02
2.645451813001695882e+02
2.639388158380360210e+02
2.624469089683738616e+02
2.621345946580476038e+02
2.628214245482508886e+02
2.643814233409733561e+02
2.662997413823866282e+02
2.894798442391452227e+02
2.930381351060622706e+02
2.926861349725614900e+02
2.889967232055453223e+02
2.814725081790943477e+02
2.626197150501679403e+02
1.747462516999527793e+02
2.262521244399840441e+02
1.504210122740634290e+02
2.838278421346671507e+02
2.782378939011796888e+02
2.650021073899631574e+02
2.729728522242218673e+02
2.684147427262230394e+02
2.633692951811482885e+02
1.678705249580829388e+02
2.633565199281762830e+02
2.645638335596727302e+02
2.719609198508370014e+02
2.666000223390833526e+02
2.691127319451474591e+02
2.890892349420016672e+02
2.917018845838932180e+02
2.904522962780070543e+02
2.868848156357382777e+02
2.765027058799586257e+02
2.507449569119456214e+02
2.081811855057002560e+02
1.886837218007865715e+02
1.403390827761146511e+02
2.820642392130555436e+02
2.770364291901679508e+02
2.659284055168440091e+02
2.685324145977941726e+02
2.723774318442091271e+02
2.659027742301734065e+02
1.437414084751422934e+02
2.063904670089024194e+02
2.522251292573152170e+02
2.730842943153770648e+02
2.671031698945730568e+02
2.692820985144411452e+02
2.754358658297256852e+02
2.741161209310557751e+02
2.718295192561382123e+02
2.845368822539948042e+02
2.876244993064200344e+02
2.873691561920830395e+02
2.850097936250650150e+02
2.668483319729975278e+02
2.346433003608066485e+02
2.123064238111050201e+02
1.564750943648357406e+02
2.813709701286454674e+02
2.767706200017772176e+02
2.691431270032919656e+02
2.727392301385507949e+02
2.702639444952339431e+02
1.750272070323192963e+02
2.335626766933920919e+02
2.617131790568038241e+02
2.707809394039358040e+02
2.722625543986689536e+02
2.742683859350749458e+02
2.748885566166275680e+02
2.754374781763697229e+02
2.770032529058275372e+02
2.821402952571646665e+02
2.837477235336738772e+02
2.832242066855429812e+02
2.815104174133898027e+02
2.508227209575089205e+02
2.212168467979776096e+02
1.844364101653734451e+02
1.419744007831337456e+02
2.797557595565917836e+02
2.768670646866204379e+02
2.736140439249903125e+02
2.748833399848757040e+02
1.517242306211892640e+02
2.134560905760594665e+02
2.524497312926211805e+02
2.654040892897459116e+02
2.760224700267419280e+02
2.753419171257479547e+02
2.722798115118268356e+02
2.676233321943126384e+02
2.749254892053049275e+02
2.784635878498736474e+02
2.791944641701990122e+02
2.791070595586462559e+02
2.406778338520693410e+02
2.023601503916238755e+02
1.509723003357411812e+02
2.786231761116557664e+02
2.770814649040249265e+02
2.766837377803826712e+02
2.753201622836103866e+02
1.448533723521136096e+02
1.937565923575212707e+02
2.386947187459352051e+02
2.563345011562937543e+02
2.728485676408053564e+02
2.672373723488984751e+02
2.759315447211020569e+02
2.554922544271673814e+02
2.656272860773196953e+02
2.712009305573391202e+02
2.740779416519616234e+02
2.228120122745465608e+02
1.804888289546605620e+02
1.375800188855424437e+02
2.762014421410099203e+02
2.728965729224279357e+02
2.679855134810493951e+02
1.642400359573383923e+02
2.211774233806533232e+02
2.440044144440456364e+02
2.590739210729315118e+02
1.407626572980396702e+02
2.720675170071634170e+02
2.683780235146904829e+02
2.408533049388543361e+02
2.542277737701571709e+02
2.624641578969707894e+02
2.020064946151873357e+02
1.515551063580931839e+02
2.684469814817562110e+02
2.601222509552032989e+02
2.487071301281651472e+02
1.991022280386267767e+02
2.322014820094614151e+02
1.563643088627503630e+02
2.618995060828444821e+02
2.519882932812031129e+02
2.227016432089330635e+02
2.395625878466242398e+02
1.790732385148010906e+02
1.352950574230654013e+02
2.507689440968536303e+02
2.351045136944606213e+02
2.151836765068142370e+02
1.906045678021663718e+02
1.369258084174724956e+02
2.377259644352317594e+02
2.207585025869090884e+02
1.937642993199336843e+02
1.408963888109573759e+02
2.186718787059469378e+02
1.950445554742514673e+02
1.663174201233115639e+02
1.752965917120231154e+02
1.898756151027464796e+02
1.432038139717644185e+02
1.682445277589957868e+02
1.411142232353196562e+02
1.481482211678386420e+02
1.356515482917153577e+02
1.289355209580857604e+02
</DataArray>
<DataArray type="Float64" Name="Temperature_@_t=00.66" Format="ascii">
1.503234726642589578e+02
1.429530059032805980e+02
1.503234726642583325e+02
1.503234726642577073e+02
1.553170480720756359e+02
1.503234726642579346e+02
1.139964185785997017e+02
8.518330117641352217e+01
1.666454119199581783e+02
1.503234726642579346e+02
1.503234726642579346e+02
1.676953985728520138e+02
1.503234726642579346e+02
1.708883629155646986e+02
1.503234726642579346e+02
1.722075393663678256e+02
2.004312968856789823e+01
1.503234726642579346e+02
1.738091494279119331e+02
1.503234726642579346e+02
1.735353928726813706e+02
9.758554775088845190e+01
2.004312968856789823e+01
1.503234726642579346e+02
1.716786278418573204e+02
1.503234726642579346e+02
1.770458831354946199e+02
1.367683800874752080e+02
2.004312968856789823e+01
1.503234726642579346e+02
1.756180262150948010e+02
1.753773847749684194e+02
1.371719534889253111e+02
2.004312968856789823e+01
2.004312968856786767e+02
1.445043570946048419e+02
2.004312968856789823e+01
2.213408004570235619e+02
2.004312968856786767e+02
1.362957630112819629e+02
2.004312968856789823e+01
2.336891178206707878e+02
2.004312968856804105e+02
1.413534254356730173e+02
2.004312968856789823e+01
2.004312968856786767e+02
2.388445853758066448e+02
1.390243647721386537e+02
2.004312968856789823e+01
2.212811122274053446e+02
1.102372132871235380e+02
1.433182455984956789e+02
2.004312968856789823e+01
2.004312968856789823e+01
1.763155084089127627e+02
2.004312968856789823e+01
1.464616598669733207e+02
2.004312968856789823e+01
1.472609420130620776e+02
2.004312968856789823e+01
2.004312968856789823e+01
1.321123310833896198e+02
1.656000652974720708e+02
1.419079714195041220e+02
2.004312968856789823e+01
2.004312968856789823e+01
1.543961868688472236e+02
1.462364404093960388e+02
2.004312968856789823e+01
1.409511150182807455e+02
2.004312968856789823e+01
1.577837023586327803e+02
2.119697281892364060e+02
2.417075790477066448e+02
2.004312968856789823e+01
3.457926164342472930e+01
2.004312968856789823e+01
2.004312968856789823e+01
4.095618180775247197e+01
2.004312968856789823e+01
2.004312968856789823e+01
1.496842371975977812e+02
2.004312968856789823e+01
2.667772166391968653e+02
2.580652215195256076e+02
2.004312968856789823e+01
1.516834253443547880e+02
5.119549413203892385e+01
2.004312968856789823e+01
8.035559174885537459e+01
2.004312968856789823e+01
2.715551092195624392e+02
2.706469305849628313e+02
1.511562977245914965e+02
2.004312968856789823e+01
1.313883530101282133e+02
2.004312968856789823e+01
2.004312968856789823e+01
6.723267314167421205e+01
1.471098215618221161e+02
5.331441336961188426e+01
2.004312968856789823e+01
2.712594207205551697e+02
2.705258087469569546e+02
2.004312968856789823e+01
6.257500729888884905e+01
2.696684946873779722e+02
2.699965865166157641e+02
2.004312968856789823e+01
6.554074404743786886e+01
2.705588551447642658e+02
2.699905305866633967e+02
6.539811277667510581e+01
2.004312968856789823e+01
2.004312968856789823e+01
2.004312968856789823e+01
7.036633444571867813e+01
2.004312968856789823e+01
1.660415882454141752e+02
2.716030683681843811e+02
2.714401958674185948e+02
2.004312968856789823e+01
7.924271308561333171e+01
2.004312968856789823e+01
6.638478854812575491e+01
5.772217300707792731e+01
2.004312968856778099e+01
1.972886679677615973e+02
2.417505579040176542e+02
2.668137891093991243e+02
2.696210058116818686e+02
6.106447908355755061e+01
2.004312968856789823e+01
2.004312968856789823e+01
6.893111023077941013e+01
2.569660230841737985e+02
6.668696977895503153e+01
2.004312968856789823e+01
2.004312968856789823e+01
7.498833407688756836e+01
6.365735699812032067e+01
2.004312968856789823e+01
2.004312968856789823e+01
6.694625889027241783e+01
2.004312968856789823e+01
6.632934884177959134e+01
2.004312968856789823e+01
6.985553828298729684e+01
2.004312968856789823e+01
7.317539164887966763e+01
6.698147040588867185e+01
2.004312968856789823e+01
2.004312968856789823e+01
7.626279325958478239e+01
6.604595407337650670e+01
2.004312968856789823e+01
6.107768626670308976e+01
2.004312968856789823e+01
2.004312968856789823e+01
6.725565495666539562e+01
2.004312968856789823e+01
7.196003654869582533e+01
2.004312968856789823e+01
6.817985639373623030e+01
5.745118815029262294e+01
2.004312968856789823e+01
6.600843974985853890e+01
2.004312968856778099e+01
2.004312968856778099e+01
7.229144201754473897e+01
6.648822519603105263e+01
2.004312968856789823e+01
5.988677526622711866e+01
2.004312968856789823e+01