<?xml version="1.0" encoding="UTF-8"?>
<VTKFile type="UnstructuredGrid" version="0.1" byte_order="LittleEndian">
<UnstructuredGrid>
<Piece NumberOfPoints="504" NumberOfCells="911">
<PointData>
<DataArray type="Float64" Name="Temperature_@_t=00.0" Format="ascii">
1.500909376393051957e+02
2.732772219580299975e+02
1.500909376393086632e+02
1.500909376393080947e+02
2.733735145034852394e+02
1.500909376393081800e+02
2.731548642662635871e+02
8.505153132894118073e+01
2.733067982615455662e+02
1.500909376393081516e+02
1.500909376393081516e+02
2.732716729818405383e+02
1.500909376393081516e+02
2.731764958168279804e+02
1.500909376393081516e+02
2.731813010238902848e+02
2.001212501857447279e+01
1.500909376393081516e+02
2.731813789731215252e+02
1.500909376393081516e+02
2.731987910776329613e+02
2.734492096324868839e+02
2.001212501857447279e+01
1.500909376393081516e+02
2.732269400897861829e+02
1.500909376393081516e+02
2.731808093922396665e+02
2.734285662616508716e+02
2.001212501857447279e+01
1.500909376393081516e+02
2.731909910385696207e+02
1.751060939125270295e+02
2.733948489749108148e+02
2.001212501857447279e+01
2.001212501857432642e+02
2.734816928551271076e+02
2.001212501857447279e+01
2.733452019669093147e+02
2.001212501857432642e+02
2.735239078307687919e+02
2.001212501857447279e+01
2.731545396695649970e+02
2.001212501857445716e+02
2.735964388137340961e+02
2.001212501857447279e+01
2.001212501857432642e+02
2.731651743233261413e+02
2.736189254764972816e+02
2.001212501857447279e+01
2.732955614953032182e+02
1.100666876021585523e+02
2.736532524256441548e+02
2.001212501857447279e+01
2.001212501857447279e+01
2.735888636218402326e+02
2.001212501857447279e+01
2.733267737019944548e+02
2.001212501857447279e+01
2.733181789980332610e+02
2.001212501857447279e+01
2.001212501857447279e+01
2.733205497894526843e+02
2.733036934500361212e+02
2.736498034288100030e+02
2.001212501857447279e+01
2.001212501857447279e+01
2.735887113269579913e+02
2.734857530161888235e+02
2.001212501857447279e+01
2.733889203916506858e+02
2.001212501857447279e+01
2.733536154341962288e+02
2.730629103461197928e+02
2.726309120772237975e+02
2.001212501857447279e+01
2.730830540744292989e+02
2.001212501857447279e+01
2.001212501857447279e+01
2.732592166966410332e+02
2.001212501857447279e+01
2.001212501857447279e+01
2.736759744013100430e+02
2.001212501857447279e+01
2.724084403569714823e+02
2.724028326630402148e+02
2.001212501857447279e+01
2.736509777664142007e+02
2.732005844673072943e+02
2.001212501857447279e+01
2.735908258062661389e+02
2.001212501857447279e+01
2.727117468936883142e+02
2.725650661722880272e+02
2.735725250176988652e+02
2.001212501857447279e+01
2.734086279654625855e+02
2.001212501857447279e+01
2.001212501857447279e+01
2.731313909611624808e+02
2.734601022611304870e+02
2.734463364117402193e+02
2.001212501857447279e+01
2.728465098616987348e+02
2.729369070162110802e+02
2.001212501857447279e+01
2.731117080107533752e+02
2.730049448900790026e+02
2.729834375234873391e+02
2.001212501857447279e+01
2.731205260467380640e+02
2.729512883964971479e+02
2.729961927159977790e+02
2.731900342761201159e+02
2.001212501857447279e+01
2.001212501857447279e+01
2.001212501857447279e+01
2.732136264429266248e+02
2.001212501857447279e+01
2.732102165495974191e+02
2.727376384436514627e+02
2.728465725851455659e+02
2.001212501857447279e+01
2.729823975433674264e+02
2.001212501857447279e+01
2.730156474933532991e+02
2.733001381549071311e+02
2.001212501857421344e+01
2.731973425144825569e+02
2.726418987753007173e+02
2.724379452708308804e+02
2.725233765030062614e+02
2.733157543975852946e+02
2.001212501857447279e+01
2.001212501857447279e+01
2.729988053655359863e+02
2.724432045635975328e+02
2.730929440600846760e+02
2.001212501857447279e+01
2.001212501857447279e+01
2.729705935439145605e+02
2.732090541171067457e+02
2.001212501857447279e+01
2.001212501857447279e+01
2.731457516091580260e+02
2.001212501857447279e+01
2.730872331404018496e+02
2.001212501857447279e+01
2.731237093312468573e+02
2.001212501857447279e+01
2.730607253039635793e+02
2.731677566871902627e+02
2.001212501857447279e+01
2.001212501857447279e+01
2.730036753006586991e+02
2.731773570978406269e+02
2.001212501857447279e+01
2.733346335676225181e+02
2.001212501857447279e+01
2.001212501857447279e+01
2.731642499737072285e+02
2.001212501857447279e+01
2.729600244989078988e+02
2.001212501857447279e+01
2.731535055071984743e+02
2.733848251719667246e+02
2.001212501857447279e+01
2.731982935430853559e+02
2.001212501857421344e+01
2.001212501857421344e+01
2.729601431949785137e+02
2.731562825659380565e+02
2.001212501857447279e+01
2.733181087804281901e+02
2.001212501857447279e+01
2.731781246059147179e+02
2.001212501857447279e+01
2.001212501857447279e+01
2.729599000137926055e+02
2.001212501857447279e+01
2.730461992807540241e+02
2.735059477717193772e+02
2.733806000473942959e+02
2.735640517817938075e+02
2.737246980180377136e+02
2.733332169457735858e+02
2.735601772311508739e+02
2.732441670652549988e+02
2.732184075770557001e+02
2.735439855976440526e+02
2.735001517130313573e+02
2.732644025353982329e+02
2.732305629460251453e+02
2.732670486240284049e+02
2.732974335690076373e+02
2.732842906058559720e+02
2.729152397551023910e+02
2.729689256265622816e+02
2.733072905250663212e+02
2.733822197798248226e+02
2.733335370800060105e+02
2.732272158269295232e+02
2.726949740356420193e+02
2.726223771836604328e+02
2.730126509316155534e+02
2.733215014803268446e+02
2.727387529143435927e+02
2.725611114785070299e+02
2.728355601136357791e+02
2.734389110530603944e+02
2.728998595666967049e+02
2.727017841550037360e+02
2.728608102112269762e+02
2.735367713481889496e+02
2.730612215742105491e+02
2.728734413276985151e+02
2.731624882640709302e+02
2.736069072664953978e+02
2.732056718653345797e+02
2.729944819743636231e+02
2.732600393373277825e+02
2.734554056299592162e+02
2.736483520435096466e+02
2.732681388335856809e+02
2.731204948349670758e+02
2.732765925353447187e+02
2.735440043039708371e+02
2.736461346834348660e+02
2.733149894769558159e+02
2.732655090204111730e+02
2.733766496538067372e+02
2.734348090196931480e+02
2.735131043006591653e+02
2.735850637527056506e+02
2.730471660386260737e+02
2.728403723957799230e+02
2.736353934894571012e+02
2.733342673100935940e+02
2.733732091778290396e+02
2.735507634340860363e+02
2.735507480673440455e+02
2.733863697090864662e+02
2.732389241513283196e+02
2.733050168519142176e+02
2.732148503943928404e+02
2.731302024896602916e+02
2.728080489289062029e+02
2.725036833243878505e+02
2.723895726397772137e+02
2.734303178724758254e+02
2.735935949460798611e+02
2.733238899618118012e+02
2.734307008831241887e+02
2.736806984782198811e+02
2.737523243222146334e+02
2.735788043209421403e+02
2.732622870384107614e+02
2.729622779644566322e+02
2.727970330025530643e+02
2.726436106315365464e+02
2.724529850047256900e+02
2.724810677408880792e+02
2.726341136651174111e+02
2.734915165350129769e+02
2.736136309187642723e+02
2.739200243564837365e+02
2.737152818523815085e+02
2.732775787603259232e+02
2.734419183975088004e+02
2.737524937832031924e+02
2.738847478584523287e+02
2.737908367454082850e+02
2.735229967157725923e+02
2.726358958949408020e+02
2.731679655159526305e+02
2.728391808712295301e+02
2.726067834758682693e+02
2.726726540543837700e+02
2.727790881031959884e+02
2.729006501851706616e+02
2.728535932509182658e+02
2.729751457378637269e+02
2.734770161854535786e+02
2.732975613821405432e+02
2.731665475113213120e+02
2.732971807118249785e+02
2.731618069352537077e+02
2.736846771078222105e+02
2.734312023200619706e+02
2.734253693257306850e+02
2.737711970025703181e+02
2.733944792119496014e+02
2.737728264486366356e+02
2.739422891670693048e+02
2.739094332716389886e+02
2.737267813760974491e+02
2.734532894035610866e+02
2.728508881582955610e+02
2.731489797681268215e+02
2.729088744624040146e+02
2.729518628950704624e+02
2.729880511052628549e+02
2.730180639350340925e+02
2.730230271348590918e+02
2.730205283865827255e+02
2.729846135868645547e+02
2.732449644711371093e+02
2.728153239957683809e+02
2.728784618605390619e+02
2.733446706754504021e+02
2.732568741858082149e+02
2.735691222742843252e+02
2.732350541994703690e+02
2.735961954622702024e+02
2.738228057348996458e+02
2.739358817376095772e+02
2.739458079295714583e+02
2.738244022029390408e+02
2.736204480873980742e+02
2.733851368738272072e+02
2.731447269828382218e+02
2.731296621695955196e+02
2.730984844954894584e+02
2.730761622480644064e+02
2.730481902969786461e+02
2.730098611266072908e+02
2.726852787024795362e+02
2.729982497587508306e+02
2.733797773506748285e+02
2.725606938713156637e+02
2.727622085629826074e+02
2.732637701779661370e+02
2.733998895751644795e+02
2.731980751893581214e+02
2.736811189021560153e+02
2.738504618466391776e+02
2.739052150476750285e+02
2.738416845563018001e+02
2.736888300113049013e+02
2.734959205198973677e+02
2.733087605963263513e+02
2.732204200707823247e+02
2.731428666993186880e+02
2.730750570671007722e+02
2.730029936545137730e+02
2.729258390658530971e+02
2.725662497157391044e+02
2.727518891579675255e+02
2.731027185396758910e+02
2.734321826062995342e+02
2.726034867635959813e+02
2.729135056597189646e+02
2.733411002484482992e+02
2.733080575487687156e+02
2.733244082660640970e+02
2.736598060066695552e+02
2.737725973970734685e+02
2.735275017292513553e+02
2.737746863482167328e+02
2.736855391509849937e+02
2.733704230872668290e+02
2.733479986278797469e+02
2.732232281136685401e+02
2.731042112509109643e+02
2.727176907467126625e+02
2.729875599203669481e+02
2.728624016575776636e+02
2.726610206326441244e+02
2.728683693665793726e+02
2.731430545062107740e+02
2.733840363095578141e+02
2.727929417110531745e+02
2.731589900783479834e+02
2.734180756371247298e+02
2.734661809478208738e+02
2.732661429559955195e+02
2.735444013979520719e+02
2.736058052022644915e+02
2.734324739209027939e+02
2.735173744351658911e+02
2.735887320768800919e+02
2.732925079905459143e+02
2.732566616563692037e+02
2.733144824937871249e+02
2.728495098617405006e+02
2.724347515598331029e+02
2.731338098332635127e+02
2.729677414771738313e+02
2.724768474610467592e+02
2.726293478661183372e+02
2.727965861243563950e+02
2.728127072481645428e+02
2.729382527721514293e+02
2.731045709903809211e+02
2.732543879629276375e+02
2.730425902506851230e+02
2.733792160992543359e+02
2.735082492642849843e+02
2.733834384588581656e+02
2.733112759643247500e+02
2.733815888136414856e+02
2.733382578161672427e+02
2.733739818873323770e+02
2.731496879551164056e+02
2.733390089155769260e+02
2.731228338638470632e+02
2.726681306710593162e+02
2.724859333138387569e+02
2.729358496176746485e+02
2.727297403436126046e+02
2.724596315523392036e+02
2.725620290819412617e+02
2.729786361630625038e+02
2.729834098212239724e+02
2.730326574540725915e+02
2.730867842595275761e+02
2.730659161812533284e+02
2.733078022236950346e+02
2.735175578507172531e+02
2.735145182402123964e+02
2.733130932411065714e+02
2.731173686542970245e+02
2.731412249489453075e+02
2.731512022359947878e+02
2.729170495903372853e+02
2.732740941303753175e+02
2.732889858344838103e+02
2.728605116219060847e+02
2.726176550194381889e+02
2.726776225085794181e+02
2.725387782397706360e+02
2.725086686867264802e+02
2.731353110831353774e+02
2.730411335334940190e+02
2.729889080564620940e+02
2.729542025976730315e+02
2.729182878455704326e+02
2.734284339573421221e+02
2.735539107515801902e+02
2.733816083081189845e+02
2.729050826487838322e+02
2.729098699363836431e+02
2.727159934690130285e+02
2.726233263197167389e+02
2.732307060149249764e+02
2.733528576604254567e+02
2.730835748158478964e+02
2.728266100144581969e+02
2.725860720757091258e+02
2.726418791759023748e+02
2.728245046161582650e+02
2.732875347037082747e+02
2.731317756984126390e+02
2.730066617350626643e+02
2.729053098285461942e+02
2.735333892115953063e+02
2.735227602059530909e+02
2.733014859069008935e+02
2.727428836080504766e+02
2.726789019830832217e+02
2.727094319214036204e+02
2.733182310207645855e+02
2.732651845255109606e+02
2.730563200158799759e+02
2.728394977267685704e+02
2.732545483442696082e+02
2.728006498707806600e+02
2.729218367176146103e+02
2.734161290548721581e+02
2.732443356493412239e+02
2.730769407721686548e+02
2.735561923671261297e+02
2.733900079359478354e+02
2.728011771987632983e+02
2.728997186516272109e+02
2.730497070907985631e+02
2.733728726833258520e+02
2.732210164686816256e+02
2.732744949336436662e+02
2.729743160992774165e+02
2.731781635825178114e+02
2.735050310790650769e+02
2.733623865718192860e+02
2.735054728548665821e+02
2.732788736712530522e+02
2.730987433831505768e+02
2.732501132310050025e+02
2.733636276385470296e+02
2.733915914780509411e+02
2.732796915407299707e+02
2.732983889613259976e+02
2.734531638014079817e+02
2.735222312604346939e+02
2.733083717292277584e+02
2.734011084198816661e+02
2.734291973843454571e+02
2.733429628598873364e+02
2.734518614969998680e+02
2.734686236476719046e+02
2.733208891911918954e+02
2.733797138369858999e+02
2.733106450370510743e+02
2.732843491922662338e+02
2.732878943751230167e+02
2.732526431867082692e+02
</DataArray>
<DataArray type="Float64" Name="Temperature_@_t=00.33" Format="ascii">
1.493446640373785783e+02
1.595291404681107679e+02
1.493446640373711887e+02
1.493446640373704497e+02
1.712786502398663515e+02
1.493446640373707055e+02
1.263588761046569715e+02
8.462864295451096552e+01
1.809756012288578120e+02
1.493446640373707623e+02
1.493446640373707623e+02
1.877950333073852960e+02
1.493446640373707623e+02
1.851980180317276563e+02
1.493446640373707623e+02
1.853081767841218834e+02
1.991262187164956998e+01
1.493446640373707623e+02
1.864399879633639898e+02
1.493446640373707623e+02
1.852314495009389645e+02
1.273622283064197660e+02
1.991262187164956998e+01
1.493446640373707623e+02
1.818529989073808508e+02
1.493446640373707623e+02
1.868319456744696367e+02
1.747000855784882276e+02
1.991262187164956998e+01
1.493446640373707623e+02
1.818242610885795898e+02
1.742354413769328403e+02
1.724217778768964138e+02
1.991262187164956998e+01
1.991262187164989257e+02
1.789001126101952366e+02
1.991262187164956998e+01
2.378102663201319444e+02
1.991262187164989257e+02
1.688774408754431704e+02
1.991262187164956998e+01
2.461690516204245682e+02
1.991262187165114597e+02
1.743295759468071537e+02
1.991262187164956998e+01
1.991262187164989257e+02
2.478042760464832668e+02
1.719159024570956831e+02
1.991262187164956998e+01
2.286262113528298983e+02
1.095194202940742798e+02
1.770949728344475034e+02
1.991262187164956998e+01
1.991262187164956998e+01
1.996774271964899015e+02
1.991262187164956998e+01
1.858779827946892453e+02
1.991262187164956998e+01
1.868455951551662224e+02
1.991262187164956998e+01
1.991262187164956998e+01
1.692673289325666133e+02
2.072639861509169066e+02
1.758828843400731046e+02
1.991262187164956998e+01
1.991262187164956998e+01
1.881455355687058102e+02
1.836144108847738892e+02
1.991262187164956998e+01
1.790855446555943331e+02
1.991262187164956998e+01
1.985940117956294273e+02
2.520974555311876486e+02
2.722791486561137617e+02
1.991262187164956998e+01
5.167552821219288717e+01
1.991262187164956998e+01
1.991262187164956998e+01
6.105030713010665977e+01
1.991262187164956998e+01
1.991262187164956998e+01
1.845959090587353728e+02
1.991262187164956998e+01
2.785977264172780679e+02
2.780682046526832778e+02
1.991262187164956998e+01
1.866955520608228767e+02
7.545510196095051469e+01
1.991262187164956998e+01
1.171258958193359945e+02
1.991262187164956998e+01
2.760707876627629958e+02
2.772392677961632330e+02
1.866192563930706285e+02
1.991262187164956998e+01
1.665264944424198177e+02
1.991262187164956998e+01
1.991262187164956998e+01
9.676872511002012800e+01
1.913757367869359598e+02
7.569681493880678147e+01
1.991262187164956998e+01
2.751386653863208949e+02
2.746108930617334636e+02
1.991262187164956998e+01
8.698341340793676579e+01
2.742896785095472865e+02
2.743841020251576310e+02
1.991262187164956998e+01
8.946908032966150870e+01
2.745168489472307556e+02
2.743049575066602870e+02
8.810153292798375446e+01
1.991262187164956998e+01
1.991262187164956998e+01
1.991262187164956998e+01
9.346301246736750556e+01
1.991262187164956998e+01
2.078789430098542823e+02
2.758953785981872784e+02
2.751355234455789969e+02
1.991262187164956998e+01
1.045240716611290708e+02
1.991262187164956998e+01
8.836398256372856963e+01
7.732153938450042574e+01
1.991262187164971209e+01
2.390503085702757176e+02
2.719670968683142860e+02
2.783443067744630071e+02
2.776647293948615811e+02
8.107013693159349543e+01
1.991262187164956998e+01
1.991262187164956998e+01
9.155071708272846820e+01
2.776435366330084662e+02
8.777889805762731612e+01
1.991262187164956998e+01
1.991262187164956998e+01
9.919487756134793699e+01
8.483092908222670303e+01
1.991262187164956998e+01
1.991262187164956998e+01
8.783774182101537065e+01
1.991262187164956998e+01
8.819729613997539275e+01
1.991262187164956998e+01
9.131390513368987172e+01
1.991262187164956998e+01
9.683982865855190880e+01
8.771613939165243323e+01
1.991262187164956998e+01
1.991262187164956998e+01
1.007006643075845886e+02
8.658677725759706334e+01
1.991262187164956998e+01
8.145778519466175283e+01
1.991262187164956998e+01
1.991262187164956998e+01
8.817272561332475789e+01
1.991262187164956998e+01
9.518855720149473143e+01
1.991262187164956998e+01
8.943415956262252564e+01
7.677318598927870141e+01
1.991262187164956998e+01
8.684472017232756968e+01
1.991262187164971209e+01
1.991262187164971209e+01
9.548016623902917388e+01
8.756420782967708760e+01
1.991262187164956998e+01
7.975013825711998550e+01
1.991262187164956998e+01
8.738786940786661717e+01
1.991262187164956998e+01
1.991262187164956998e+01
9.592693542029829246e+01
1.991262187164956998e+01
9.070839754525457010e+01
7.334377432011433484e+01
1.435351648325909935e+02
1.886342572285916788e+02
1.976749991548565504e+02
2.116018027682044078e+02
2.218705990975152531e+02
2.178746383459161962e+02
2.114877016319558152e+02
1.872833106892976218e+02
2.434343115246612115e+02
2.486602388919766327e+02
2.404408638134495959e+02
2.169981781523296718e+02
2.102171124708707168e+02
2.485753528650552084e+02
2.692025399898922728e+02
2.661831469884725720e+02
2.462934022515190691e+02
2.199221652097445769e+02
2.107933644865397582e+02
2.460728703095790308e+02
2.732361498987508526e+02
2.759681030055884321e+02
2.660674038610443404e+02
2.431848447361134902e+02
2.724742707651320757e+02
2.767821730719645075e+02
2.696380680673195798e+02
2.441462764824199496e+02
2.709512685059173123e+02
2.753283147215009876e+02
2.702831682190484912e+02
2.453817297194624132e+02
2.696774218609706963e+02
2.738874880658289612e+02
2.616837649556040333e+02
2.462382187547103172e+02
2.682955706332118666e+02
2.736172485093632645e+02
2.658275719877649976e+02
2.329597526404588734e+02
2.467763368827842498e+02
2.690193384885618570e+02
2.729150097353585238e+02
2.705351953701444927e+02
2.570580140745435642e+02
2.494016732328504418e+02
2.694224820256634416e+02
2.719154150362989526e+02
2.708009002041307554e+02
2.695224739636500431e+02
2.627513462560863218e+02
2.481538622435492414e+02
2.538796510309490486e+02
2.646552133556807576e+02
2.506649663998541087e+02
2.698222833630857167e+02
2.712530226949278358e+02
2.695556756018611964e+02
2.696173816344504530e+02
2.709858515013310694e+02
2.706852848793427029e+02
2.593170383250015902e+02
2.530224801806802475e+02
2.525949105702405575e+02
2.676355678849336073e+02
2.764340627438191973e+02
2.787302442809321406e+02
1.076965082555832964e+02
2.527351762231315320e+02
2.703710503177445617e+02
2.709418084099738167e+02
2.687048400412849105e+02
2.681208846249896851e+02
2.696943769646630926e+02
2.724170835394613732e+02
2.745734625058049687e+02
2.745490743517158876e+02
2.751719098705875126e+02
2.783740718483177261e+02
2.781363614050462161e+02
2.767385884258391684e+02
2.562482551410118390e+02
1.320526603146959133e+02
1.730114456842380832e+02
1.878957189512917978e+02
2.708622535250063379e+02
2.708367945062955755e+02
2.682494285518001789e+02
2.672638714047793087e+02
2.681326435638931684e+02
2.703276304265250474e+02
2.772721437917349476e+02
2.731745269509417540e+02
2.757824140554940868e+02
2.773699382570538319e+02
2.766247532303657408e+02
2.756908295760267720e+02
2.748350699980987883e+02
2.751065662918290400e+02
2.744171355396702552e+02
2.334544495454826745e+02
2.612458421982616983e+02
2.719165206384475937e+02
2.421023061311406934e+02
2.534738310692794983e+02
1.696065425184471565e+02
1.375543270052484957e+02
2.448291483418720134e+02
2.231249974239662492e+02
2.710052016582388319e+02
2.679842628612947237e+02
2.668972765936853193e+02
2.673816823627343524e+02
2.688962631048228786e+02
2.709821574376139210e+02
2.754855875819017115e+02
2.732446350115159817e+02
2.748947676399506008e+02
2.745459611217224847e+02
2.743288408157687286e+02
2.741933656990733539e+02
2.741894324434305759e+02
2.673731276281021110e+02
2.734449009918828324e+02
2.719339999297621375e+02
2.704348268245052509e+02
2.690607362173234378e+02
1.504333248569812440e+02
1.406937341945285880e+02
2.111544250195599943e+02
2.564356421738988843e+02
2.690930127660363951e+02
2.674528900703900831e+02
2.668538916830596577e+02
2.671161801614984483e+02
2.682745105681711948e+02
2.698885755532508028e+02
2.715996496043338198e+02
2.732669213655393605e+02
2.734242328932579653e+02
2.736875024230000690e+02
2.738657516898894073e+02
2.740324988876630528e+02
2.742189128739231592e+02
2.762313498310738851e+02
2.737879178424379347e+02
2.705650329927997291e+02
2.770019586854903082e+02
2.715800303964795148e+02
1.444529215740462007e+02
1.946690300642564750e+02
2.493812523940358687e+02
2.683073499232068571e+02
2.672915131016371220e+02
2.672436593205820827e+02
2.680647863498062407e+02
2.694259375926516782e+02
2.709216970810668386e+02
2.722546189192593715e+02
2.729150259504518772e+02
2.734303210919036928e+02
2.738238380574204029e+02
2.742128944849999925e+02
2.746486033418324268e+02
2.775898584045317534e+02
2.759170111606731552e+02
2.727650135925704262e+02
2.701099973856316296e+02
2.759837331387752783e+02
2.652725548159709206e+02
1.781103429596502394e+02
2.335935378161537983e+02
1.492228181863443126e+02
2.685344075672491613e+02
2.679927934131943061e+02
2.706480158149499857e+02
2.683232719949488683e+02
2.692886068727889324e+02
2.718416592780393444e+02
1.750692154114081518e+02
2.728282368630075894e+02
2.735553414818292595e+02
2.760870930609813172e+02
2.742556103675040617e+02
2.750559290100808312e+02
2.764533867793978175e+02
2.748042265762092029e+02
2.725139353033920884e+02
2.706565849039491809e+02
2.720973087378320656e+02
2.543111758566957405e+02
2.138199646826115554e+02
1.924872243748309018e+02
1.371366970062134953e+02
2.695904786508586426e+02
2.693679275219813576e+02
2.712439538306178406e+02
2.704867165604086949e+02
2.697475046760819168e+02
2.722182874939314274e+02
1.457906846914712560e+02
2.193452797015423528e+02
2.644903667430231735e+02
2.780601224598933072e+02
2.732621867284841528e+02
2.743591527351298396e+02
2.781344043462950708e+02
2.768595715110720334e+02
2.755671906584157114e+02
2.743684490191130863e+02
2.741209922591398822e+02
2.730043930965425147e+02
2.719031889755490852e+02
2.655685089586182812e+02
2.395353757002606017e+02
2.177460157726407033e+02
1.561132595259649634e+02
2.715878419894307285e+02
2.711591324223814468e+02
2.717468633980665231e+02
2.713483514461757977e+02
2.730700732289323582e+02
1.834831020125353120e+02
2.475421379206654535e+02
2.716354848532592996e+02
2.769765547456214563e+02
2.746038913813802651e+02
2.761738612903120043e+02
2.782362934084083577e+02
2.775217819978516332e+02
2.712019338276036819e+02
2.732740399823440498e+02
2.736029776464345673e+02
2.733879867953957046e+02
2.736604249841141723e+02
2.538464806315858482e+02
2.271190321112265735e+02
1.881953947109637113e+02
1.393484069886921191e+02
2.732675912403904590e+02
2.730808674040064261e+02
2.730150787179987333e+02
2.748101473674994963e+02
1.554654855530624786e+02
2.268559570946544000e+02
2.644860991967871655e+02
2.738326095316519400e+02
2.767246423017958818e+02
2.777302394977411382e+02
2.772756873723707258e+02
2.665855551898752651e+02
2.713114019388862062e+02
2.733794584329493773e+02
2.742432663350641633e+02
2.748015245397667741e+02
2.459205195813038358e+02
2.082082465740734847e+02
1.502834330829108751e+02
2.750299708210748690e+02
2.749470366843696070e+02
2.764897119997704635e+02
2.770440629151922280e+02
1.470197774076252983e+02
2.050097874058926379e+02
2.522420336196942685e+02
2.672504247441881944e+02
2.767984849719701401e+02
2.744144776276665425e+02
2.751899871193388663e+02
2.590645676418157564e+02
2.671762103878864423e+02
2.713910837372067704e+02
2.737254430879322626e+02
2.299614370055215602e+02
1.848216373813384052e+02
1.348140825547124848e+02
2.761176968997098129e+02
2.759593972555766754e+02
2.740682959015957749e+02
1.704415589577269543e+02
2.347462329757725854e+02
2.566726992855977869e+02
2.686811877855190005e+02
1.418363468502902549e+02
2.744565654424872037e+02
2.717775390950779979e+02
2.479223492565409970e+02
2.601283612016948723e+02
2.671731725686349250e+02
2.092856159269755381e+02
1.518985175636758527e+02
2.732730819015711177e+02
2.685583394009777862e+02
2.600675509672671524e+02
2.107150590091109734e+02
2.453009727996916354e+02
1.607449374073561046e+02
2.684599802917168176e+02
2.602576084193172505e+02
2.316782432931584310e+02
2.486961820027501062e+02
1.844864319015598539e+02
1.328450749898511845e+02
2.607554610759809748e+02
2.473327985454021416e+02
2.276625109518476791e+02
2.008885302610099473e+02
1.369253218874555671e+02
2.486240285131381142e+02
2.313628565523019631e+02
2.017595761880917564e+02
1.399313548688955393e+02
2.304589362221715589e+02
2.053369415240640876e+02
1.723707933573663809e+02
1.814360620357713572e+02
1.986627241326155797e+02
1.430916854414927002e+02
1.741172610785962149e+02
1.417501671767135463e+02
1.495776351753016513e+02
1.342039162154530061e+02
1.264039298206348292e+02
</DataArray>
<DataArray type="Float64" Name="Temperature_@_t=00.66" Format="ascii">
1.501336661823050349e+02
1.419207021702510758e+02
1.501336661823029033e+02
1.501336661823022780e+02
1.544394100513301282e+02
1.501336661823025054e+02
1.117099601929871824e+02
8.507574416997212552e+01
1.656583936515200719e+02
1.501336661823025054e+02
1.501336661823025054e+02
1.675339295661609640e+02
1.501336661823025054e+02
1.699239913162156483e+02
1.501336661823025054e+02
1.710914135930374300e+02
2.001782215764049155e+01
1.501336661823025054e+02
1.726727956800287132e+02
1.501336661823025054e+02
1.723183860632836968e+02
9.711746149339273870e+01
2.001782215764049155e+01
1.501336661823025054e+02
1.702874198292228982e+02
1.501336661823025054e+02
1.757689059820694126e+02
1.375267965451984651e+02
2.001782215764049155e+01
1.501336661823025054e+02
1.739023586219637139e+02
1.751559438793535719e+02
1.372871017543340031e+02
2.001782215764049155e+01
2.001782215764054627e+02
1.444674252050505174e+02
2.001782215764049155e+01
2.214137757930576527e+02
2.001782215764054627e+02
1.359766564582027968e+02
2.001782215764049155e+01
2.328449313247600969e+02
2.001782215764093564e+02
1.412612869526714121e+02
2.001782215764049155e+01
2.001782215764054627e+02
2.371082616887539700e+02
1.390691206754359257e+02
2.001782215764049155e+01
2.193638946489899126e+02
1.100980218670231636e+02
1.437055800628264137e+02
2.001782215764049155e+01
2.001782215764049155e+01
1.759894285531396463e+02
2.001782215764049155e+01
1.485145141011718692e+02
2.001782215764049155e+01
1.493400922254070622e+02
2.001782215764049155e+01
2.001782215764049155e+01
1.335389884192375973e+02
1.683111170621151302e+02
1.424209249135671200e+02
2.001782215764049155e+01
2.001782215764049155e+01
1.556777317714022217e+02
1.480231282043571071e+02
2.001782215764049155e+01
1.427557048677498415e+02
2.001782215764049155e+01
1.602789152347603761e+02
2.152125005903844510e+02
2.440470996969590374e+02
2.001782215764049155e+01
3.104147263179967453e+01
2.001782215764049155e+01
2.001782215764049155e+01
3.798359071214549942e+01
2.001782215764049155e+01
2.001782215764049155e+01
1.504601660676031543e+02
2.001782215764049155e+01
2.675139907986064713e+02
2.593662757281430800e+02
2.001782215764049155e+01
1.524021612270121011e+02
4.901517726288172128e+01
2.001782215764049155e+01
8.054235737315345034e+01
2.001782215764049155e+01
2.727014804163069925e+02
2.714224290726545519e+02
1.517568211175974398e+02
2.001782215764049155e+01
1.315867951780730607e+02
2.001782215764049155e+01
2.001782215764049155e+01
6.605696481395533226e+01
1.488412666378044946e+02
5.077244712677538274e+01
2.001782215764049155e+01
2.729812025661331631e+02
2.728109922705500026e+02
2.001782215764049155e+01
6.043858737025080785e+01
2.724814757728206018e+02
2.726117819260359170e+02
2.001782215764049155e+01
6.333297673203651357e+01
2.728162966354443029e+02
2.726045087416057981e+02
6.298077424523785339e+01
2.001782215764049155e+01
2.001782215764049155e+01
2.001782215764049155e+01
6.845711085767027271e+01
2.001782215764049155e+01
1.687832101479067717e+02
2.727006907711885333e+02
2.729818974485807530e+02
2.001782215764049155e+01
7.739074928779845663e+01
2.001782215764049155e+01
6.422928795989348316e+01
5.502141099659031198e+01
2.001782215764046313e+01
2.005226150737103978e+02
2.440135642130536553e+02
2.674876656316910157e+02
2.702381947508324060e+02
5.818574400156123261e+01
2.001782215764049155e+01
2.001782215764049155e+01
6.692327397200958217e+01
2.582820583523871960e+02
6.406798927658537934e+01
2.001782215764049155e+01
2.001782215764049155e+01
7.334323313698243396e+01
6.131637102475561818e+01
2.001782215764049155e+01
2.001782215764049155e+01
6.432469895752345224e+01
2.001782215764049155e+01
6.414969241176548564e+01
2.001782215764049155e+01
6.739273424760089881e+01
2.001782215764049155e+01
7.140486215769902856e+01
6.439623357353750066e+01
2.001782215764049155e+01
2.001782215764049155e+01
7.466982719393632806e+01
6.344739589065641638e+01
2.001782215764049155e+01
5.855333561691323752e+01
2.001782215764049155e+01
2.001782215764049155e+01
6.476516799892660003e+01
2.001782215764049155e+01
7.009106829222558588e+01
2.001782215764049155e+01
6.578472232968024969e+01
5.468458649116388415e+01
2.001782215764049155e+01
6.353589576282853812e+01
2.001782215764046313e+01
2.001782215764046313e+01
7.040979053455923520e+01
6.408369162950801012e+01
2.001782215764049155e+01
5.723964364076922351e+01
2.001782215764049155e+01